material_id,formula_pretty,n_elements,contains_transition_metal,formation_energy_per_atom,energy_per_atom,band_gap,is_semiconductor,density,volume,elements
mp-776909,LiFe2(BO3)2,4,True,-0.3212692649276203,-0.1785946156841821,0.3879365664685619,True,-0.3667971256354365,0.1769650697332684,"['B', 'Fe', 'Li', 'O']"
mp-696130,Li10Ge(PO6)2,4,False,-0.5540670152512545,0.3026195282405682,2.14527282457538,True,-0.8379424161327957,0.2821818773860556,"['Ge', 'Li', 'O', 'P']"
mp-774311,Li3MnV(PO4)3,5,True,-0.6881161805101187,-0.0875785393223975,-0.8682128617659177,False,-0.5812704137740665,1.5016938328786642,"['Li', 'Mn', 'O', 'P', 'V']"
mp-1175568,Li9Mn2Co5O16,4,True,0.1429814845691663,0.214461974664775,-0.513008037460286,False,0.3325221167737138,-0.4219144107470449,"['Co', 'Li', 'Mn', 'O']"
mp-777593,Li32Ti3Cr13O48,4,False,-0.439090388150594,0.0696458617146645,-0.2190804464746313,False,-0.1386271222434666,1.2109002070076835,"['Cr', 'Li', 'O', 'Ti']"
mp-33363,LiYS2,3,False,-0.1189314455974304,0.2964047714189564,0.5306685088315568,True,-0.3408191924614372,-0.7647655160023512,"['Li', 'S', 'Y']"
mp-777104,Li2Cr(PO3)4,4,False,-0.658451422847057,-0.0781273541387204,1.4750827081100455,True,-0.969764268062744,1.9443227426538428,"['Cr', 'Li', 'O', 'P']"
mp-755965,LiTiFeO4,4,True,-0.7080450161058425,-0.2258112708992193,0.4016816254342576,True,0.0379224929654848,-0.3582370061837965,"['Fe', 'Li', 'O', 'Ti']"
mp-30129,Li4TaN3,3,False,0.9694446202895468,-1.3074311906008276,0.9491141463094076,True,0.8425856772273698,-0.2781984278311808,"['Li', 'N', 'Ta']"
mp-774680,Li2Ti3NiO8,4,True,-1.0376830540513275,-0.2450917835835006,0.5744766524315837,True,0.0681612756118356,0.475487095175995,"['Li', 'Ni', 'O', 'Ti']"
mp-768439,Li3Co4(BO3)4,4,True,-0.2192263369248022,-0.0373350682746422,-0.5506546029032771,False,-0.1940095973695332,0.1248194443463491,"['B', 'Co', 'Li', 'O']"
mp-779588,LiCu2PO4,4,False,0.1303606559076135,0.2923266509555527,-0.4217354291560564,False,0.337370710097616,-0.2057699111034203,"['Cu', 'Li', 'O', 'P']"
mp-1177647,Li3Ni7O12,3,True,0.8331508816763725,0.3662562788393525,-0.8682128617659177,False,0.8593199488140324,0.5437869619036569,"['Li', 'Ni', 'O']"
mp-1080005,Cs3Li2Br5,3,False,0.0329531357773535,1.120159069756453,2.1994405446372376,True,-0.0014527770682618,-0.199198589880091,"['Br', 'Cs', 'Li']"
mp-684503,LiSn(PO3)3,4,False,-0.579486725823578,0.0036526002121675,2.0152702964269205,True,-0.2908929355024772,0.8592823916686416,"['Li', 'O', 'P', 'Sn']"
mp-771397,Li4Ti3Mn2Ni3O16,5,True,-0.0813891172359854,0.0027818373332721,-0.8493218693943456,False,0.3184018594170484,-0.4288321659751994,"['Li', 'Mn', 'Ni', 'O', 'Ti']"
mp-1096330,LiAgHg2,3,False,2.688607446363588,-6.63637171313467,-0.1617303728591396,False,-1.949524469218471,1.7199781677439223,"['Ag', 'Hg', 'Li']"
mp-25823,LiNi2(PO3)5,4,True,-0.4755658188102784,-0.0344514350807125,1.8674601303081275,True,-0.5676126408785002,0.4776291391592697,"['Li', 'Ni', 'O', 'P']"
mp-21894,LiSn4Ir,3,False,1.835360255647396,0.7274928840766474,-0.8682128617659177,False,3.4690678554257386,-0.5147738896822922,"['Ir', 'Li', 'Sn']"
mp-761208,Li2VFeP2(O4F)2,6,True,-0.7801774886318124,-0.0382037355957629,0.2219802141290455,True,-0.3882176643333818,-0.1835378183707827,"['F', 'Fe', 'Li', 'O', 'P', 'V']"
mp-756560,Li2Ti3O7,3,False,-1.3402591369518502,-0.3171920271600752,0.8562165064033217,True,-0.2806173217048998,-0.4622825357856268,"['Li', 'O', 'Ti']"
mp-1237975,Li3IrF6,3,False,-0.4653837021457747,-0.8551292281423417,0.4943761363901122,True,0.2464705981876812,-0.8574177335643589,"['F', 'Ir', 'Li']"
mp-778244,Li3V4(OF3)3,4,False,-1.0754669809994344,0.1230751243581795,-0.0911092078284926,False,-0.2610610551088921,0.0278484092881811,"['F', 'Li', 'O', 'V']"
mp-1273567,Li5Mn2CoO8,4,True,-0.0263410907215459,0.1792529321798071,-0.6035358396136663,False,0.0808655245159147,-0.8275254882144729,"['Co', 'Li', 'Mn', 'O']"
mp-1222380,LiCoAsO4,4,True,0.1861790890653474,0.1991133129664739,0.5067670023542622,True,0.6529920761077461,-0.4070672406698218,"['As', 'Co', 'Li', 'O']"
mp-779883,LiV2P4(HO8)2,5,False,-0.4695201978637936,-0.0671026752668677,-0.2001217444529812,False,-0.5288777666197103,0.3518467571402484,"['H', 'Li', 'O', 'P', 'V']"
mp-35205,LiErSe2,3,False,0.0355727311809581,-3.162066412768231,0.2969347967646405,True,1.5708130102398543,-0.7158529617005596,"['Er', 'Li', 'Se']"
mp-1031332,KLiMg6O7,4,False,-0.3482610776256331,0.5289036711452015,-0.3625571949884769,False,-0.5583523134034712,-0.7384356369173056,"['K', 'Li', 'Mg', 'O']"
mp-754024,LiTi2V3O10,4,False,-0.9181652672011326,-0.4158289609269519,0.1166917082588096,True,-0.0870806509302858,-0.13747555822853,"['Li', 'O', 'Ti', 'V']"
mp-570512,LiWCl6,3,False,0.8346593790297616,-1.5295509124917406,-0.8682128617659177,False,-0.2475208356383454,1.051307666287384,"['Cl', 'Li', 'W']"
mp-6075,Ba2Li(BO2)5,4,False,-1.164424633435746,-0.1968861274919477,2.61253711975898,True,0.0110420012087928,0.0237273378873841,"['B', 'Ba', 'Li', 'O']"
mp-1235786,Rb2LiPu(Cl2O)2,5,False,-0.253927185389722,0.4302144275570644,-0.6289946680427388,False,-0.1677522312709382,-0.4219534027014583,"['Cl', 'Li', 'O', 'Pu', 'Rb']"
mp-1176925,Li6V3P8O29,4,False,-0.7521137350237661,-0.0820787854546048,0.1108009687020825,True,-0.802718500378222,2.169380883204285,"['Li', 'O', 'P', 'V']"
mp-756660,Li4Ti3NbO8,4,False,-0.933168903451316,-0.1763506624902061,-0.8682128617659177,False,0.3801160971855377,-0.8025936638759298,"['Li', 'Nb', 'O', 'Ti']"
mp-553926,NaLiB4O7,4,False,-0.8866155940834926,-0.1369694230273326,3.1114895311787665,True,-0.8707110927637045,0.2121442987879939,"['B', 'Li', 'Na', 'O']"
mp-777053,Li4Mn3Fe2Sn3O16,5,True,-0.0422863330999297,0.0431050739106401,-0.4734656018151305,False,0.7371191408067801,-0.3325327835714669,"['Fe', 'Li', 'Mn', 'O', 'Sn']"
mp-760468,LiSi2BiO6,4,False,-0.8149961139154824,-0.020650420380553,1.4077116062831103,True,0.6043525471771085,-0.4796017543089007,"['Bi', 'Li', 'O', 'Si']"
mp-768160,Li2BiPCO7,5,False,-0.3283664607138902,0.0742502054918375,1.724660478295055,True,0.1045562048496625,-0.3106049821119609,"['Bi', 'C', 'Li', 'O', 'P']"
mp-1176382,Na2LiCuP2O7,5,False,-0.4209187288836764,0.2189859763544507,0.70556253498128,True,-0.6090225651331177,-0.2575050930569579,"['Cu', 'Li', 'Na', 'O', 'P']"
mp-866150,LiSm2Os,3,False,1.975537089219416,-6.27021680585995,-0.8682128617659177,False,3.828599622335896,-0.9861229363341626,"['Li', 'Os', 'Sm']"
mp-756206,LiVF4,3,False,-1.2953752541311758,0.2953370161811931,0.170994847620822,True,-0.7276839829819962,-0.2737897957223502,"['F', 'Li', 'V']"
mp-756595,Li4Mn5SnO12,4,True,-0.0723964194832558,-0.0211655375922984,-0.8460040965405567,False,0.2266799724884703,-0.5191428632664447,"['Li', 'Mn', 'O', 'Sn']"
mp-705401,Li2Ni4P4O15,4,True,-0.3139325502149293,0.0305279859449652,1.3819819392537278,True,-0.3120110475336554,2.33943379088832,"['Li', 'Ni', 'O', 'P']"
mp-1274983,LiMn2O3F,4,True,-0.3705061552408917,-0.0922097842926982,-0.3714948687986827,False,0.070742886419633,-0.3238535283996077,"['F', 'Li', 'Mn', 'O']"
mp-1177207,Li4V5Cr3O16,4,False,-0.5140703484228935,-0.2670523412070095,-0.1248286135669983,False,0.1812965827787649,-0.4100793874487,"['Cr', 'Li', 'O', 'V']"
mp-1175547,Li9Mn2Co5O16,4,True,0.154300571512036,0.2163092659693348,-0.4228864932073709,False,0.3387912901536338,-0.423711212720564,"['Co', 'Li', 'Mn', 'O']"
mp-1235587,LiNi9O13,3,True,1.1046158807507296,0.3382901087320349,-0.8682128617659177,False,1.1623052040981898,-0.588766496157008,"['Li', 'Ni', 'O']"
mp-766468,Li6Ca3MnC6(O9F)2,6,True,-0.5282291325368811,-0.0101507143095609,2.315020917319227,True,-0.7867588570919615,-0.0928894805268146,"['C', 'Ca', 'F', 'Li', 'Mn', 'O']"
mp-758207,Li2Mn3P9O28,4,True,-0.5864500508292196,-0.1259618460544417,-0.1404018330847824,False,-0.4526939877638977,0.1743685675162729,"['Li', 'Mn', 'O', 'P']"
mp-559875,K3Na2LiTeO6,5,False,0.1564714102500046,0.669011864318846,0.7943975958827264,True,-0.2643025238658089,-0.11255103206297,"['K', 'Li', 'Na', 'O', 'Te']"
mp-771327,Li4TiCr5O12,4,False,-0.5006123106558534,-0.2177277663357678,-0.8145868189046793,False,0.0200499813655806,-0.5689186413196075,"['Cr', 'Li', 'O', 'Ti']"
mp-8407,Li3LaP2,3,False,0.8923354393262923,-0.88119942651216,-0.4118498202447674,False,-0.199894387412666,-0.9301866881465456,"['La', 'Li', 'P']"
mp-753432,LiMnFeO4,4,True,0.0365019142128162,-0.0819500233811066,-0.4297251678651798,False,0.205439733921196,-0.8086299888541822,"['Fe', 'Li', 'Mn', 'O']"
mp-765645,Li5Co5(NiO6)2,4,True,0.465576912763718,0.2573771623285967,-0.8373372613306596,False,0.909870635002208,-0.6388020090637556,"['Co', 'Li', 'Ni', 'O']"
mp-14023,Na3Li3Sc2F12,4,False,-1.770939112097139,0.4133177242369155,3.81458653758168,True,-0.772226577697403,1.7738694188284772,"['F', 'Li', 'Na', 'Sc']"
mp-780684,Li2Cr(CO3)3,4,False,0.023149132366566,-0.1126285735582331,-0.8531136097986749,False,-0.8631986176580562,-0.2795564401095466,"['C', 'Cr', 'Li', 'O']"
mp-1367449,Li3Ni5OF11,4,True,0.3138660846480339,0.7419796228055474,0.1586716913067492,True,0.3081024059337747,-0.62405935973261,"['F', 'Li', 'Ni', 'O']"
mp-1177776,Li2VFe(P2O7)2,5,True,-0.7195858412623028,-0.1321598107358071,0.4163746195010374,True,-0.568888873000699,0.3113207142643482,"['Fe', 'Li', 'O', 'P', 'V']"
mp-772559,NaLi5Mn2P2(CO7)2,6,True,-0.4677271237909847,-0.0104517058915642,1.7079361947259557,True,-0.671273520504825,0.428977834663219,"['C', 'Li', 'Mn', 'Na', 'O', 'P']"
mp-26179,LiMnP2O7,4,True,-0.6477674661779697,-0.123375790795372,0.0398412554210483,True,-0.4964913130414235,-0.4863581349640144,"['Li', 'Mn', 'O', 'P']"
mp-14638,Rb2LiGaF6,4,False,-1.227786960856723,0.6816260920049906,3.270471789560319,True,0.1803380471259773,-0.3755142816108708,"['F', 'Ga', 'Li', 'Rb']"
mp-760275,LiFe2(BO3)2,4,True,-0.3180341913524567,-0.1777414347698029,0.3348522008079415,True,-0.3460902917009218,0.1634180299102777,"['B', 'Fe', 'Li', 'O']"
mp-1040107,NaLiMg30O31,4,False,-1.053707606841778,0.3141907356739327,0.7779441509139366,True,-0.2768840349532444,0.5655777870902033,"['Li', 'Mg', 'Na', 'O']"
mp-757913,Li4(NiO2)5,3,True,0.6921882119477142,0.407760543929522,-0.7317779168601137,False,0.6867695118471213,-0.2720280522829589,"['Li', 'Ni', 'O']"
mp-758631,Li2Fe2Si2O7,4,True,-0.5649619825880545,-0.0887504488356996,1.0804031578093352,True,-0.477671468025756,-0.3103984758306866,"['Fe', 'Li', 'O', 'Si']"
mp-761158,LiVSi4(HO6)2,5,False,-0.756153403938132,-0.0948636577945409,0.3326177823553898,True,-0.8709245401964602,0.1884107614119403,"['H', 'Li', 'O', 'Si', 'V']"
mp-757584,Li4VP2O9,4,False,-0.7183420326970072,0.0421526495352596,-0.0145295935910405,False,-0.753879254765084,-0.1976375139079962,"['Li', 'O', 'P', 'V']"
mp-1101516,LiFeP2O7,4,True,-0.5864853253645915,-0.088961181953243,0.8670500504156933,True,-0.3747143972143679,0.1850996221386343,"['Fe', 'Li', 'O', 'P']"
mp-1173879,Li2CoO3,3,True,0.2166403684617708,0.3484888935151808,-0.8682128617659177,False,0.3260971190377464,-0.6913422165119033,"['Co', 'Li', 'O']"
mp-753441,Li2Mn2OF6,4,True,-0.8513285791965053,0.2967941796597206,0.1663228817654867,True,-0.3960065204957928,-0.4676798118324888,"['F', 'Li', 'Mn', 'O']"
mp-759741,Li9V3P8O29,4,False,-0.8033572117330613,-0.042412931896733,-0.2337734405414096,False,-0.7261898647236991,2.0980539880241715,"['Li', 'O', 'P', 'V']"
mp-766942,Li2MnF5,3,True,-1.063673429082293,0.4404119106526871,0.3861761155665515,True,-0.7297979451702248,-0.0567480920879779,"['F', 'Li', 'Mn']"
mp-25289,LiCo(WO4)2,4,True,0.0297577738209066,-0.2557529258176544,-0.1080366203478224,False,1.9809013161621063,-0.8369275372695844,"['Co', 'Li', 'O', 'W']"
mp-1173961,Li3Mn2O5,3,True,-0.1586571152836167,0.081264529371065,0.0624562785468738,True,0.0609077695981067,-0.7121391032610137,"['Li', 'Mn', 'O']"
mp-771263,Li3VSiBO7,5,False,-0.7844640624505308,-0.041892989832624,0.2489286548598197,True,-0.7058023499611443,0.3462688036812412,"['B', 'Li', 'O', 'Si', 'V']"
mp-780226,Li3LaO3,3,False,-0.7037592865459544,0.2959109888644113,1.753233950627685,True,0.0782870908427289,-0.2079222150807371,"['La', 'Li', 'O']"
mp-1096107,LiMgSn2,3,False,3.470099243559904,1.615498038837203,-0.5347428351351063,False,-2.228888871182108,1.837616492810615,"['Li', 'Mg', 'Sn']"
mp-1245623,LiMn2N3,3,True,1.6328434936828349,-0.2187075722104904,-0.8682128617659177,False,0.2373334673561906,-0.8670796962207873,"['Li', 'Mn', 'N']"
mp-1174437,Li4MnCo2O7,4,True,0.1605736511246013,0.219475656967305,-0.8682128617659177,False,0.2770870066346217,-0.5183667972345645,"['Co', 'Li', 'Mn', 'O']"
mp-851118,KNa2LiZr2(Si2O5)6,6,False,-1.3687819470357554,-0.2509780473081521,2.353750837163455,True,-0.6965609043454283,2.625499169499051,"['K', 'Li', 'Na', 'O', 'Si', 'Zr']"
mp-1100484,Li9Mn7O16,3,True,-0.1711011542443619,0.0385239200936154,-0.0445249685752944,False,0.1056274720379139,-0.375594044640975,"['Li', 'Mn', 'O']"
mp-1105683,LiBC2(O2F)2,5,False,-0.3227061702693438,-0.016390655608718,1.670966725783738,True,-1.2024785839381047,-0.5321860815434912,"['B', 'C', 'F', 'Li', 'O']"
mp-849771,Li7VGeO8,4,False,-0.3983289107846818,0.2961020566999504,1.002943318120879,True,-0.737186739950342,-0.1512559729333872,"['Ge', 'Li', 'O', 'V']"
mp-770550,Li2AlCoO4,4,True,-0.3893637643722124,0.1852172428570598,0.2902992510570628,True,-0.4601901261228369,-0.2123140620133667,"['Al', 'Co', 'Li', 'O']"
mp-761240,Li2MnV(P2O7)2,5,True,-0.7463978524173495,-0.1483572833253463,-0.7391582687185425,False,-0.5826674043179609,0.3193823369830784,"['Li', 'Mn', 'O', 'P', 'V']"
mp-26335,LiFe(PO3)4,4,True,-0.6120301680123613,-0.0962240796238848,0.9669894939298206,True,-0.8408318046851248,0.2182164929963328,"['Fe', 'Li', 'O', 'P']"
mp-758441,Li4(NiO2)5,3,True,0.7070915228661199,0.4116909709016493,-0.8682128617659177,False,0.4154018730000383,-0.7102651232026913,"['Li', 'Ni', 'O']"
mp-1100615,Li9Mn2Co5O16,4,True,0.197852828270887,0.2277952347986236,-0.8682128617659177,False,0.26460410437261,-0.401927846980817,"['Co', 'Li', 'Mn', 'O']"
mp-1175171,Li7Mn4CoO12,4,True,-0.0727568741366885,0.1109063466529112,-0.8682128617659177,False,0.1399968527251612,0.0195114808195631,"['Co', 'Li', 'Mn', 'O']"
mp-758311,Li2CuSiO4,4,False,-0.4067073088479522,0.2297677054773221,-0.8682128617659177,False,-0.3045486471594122,-0.2514616472942328,"['Cu', 'Li', 'O', 'Si']"
mp-1222435,LiVWO6,4,False,-0.3078248682451393,-0.2716661706660833,0.9747761036887118,True,0.9110667053701832,-0.9213744177564268,"['Li', 'O', 'V', 'W']"
mp-1105934,LiMnAsO5,4,True,0.113490772670919,0.1005070860765181,-0.683297807404751,False,0.1895049795850145,-0.2072471743434424,"['As', 'Li', 'Mn', 'O']"
mp-1283607,Li2CoCuO4,4,True,0.5087490063302886,0.4092494825918743,-0.8682128617659177,False,0.6074514412252976,-0.8256657883930522,"['Co', 'Cu', 'Li', 'O']"
mp-1236131,Sr2LiLaTaO6,5,False,-1.112119013261909,-0.1204648675113919,-0.8682128617659177,False,1.3048263212571165,-0.7351191791796279,"['La', 'Li', 'O', 'Sr', 'Ta']"
mp-764846,Li2MnF4,3,True,-1.1489256387205595,0.3804253270324113,1.8384804000750328,True,-0.8908157810100436,0.4843018335490206,"['F', 'Li', 'Mn']"
mp-757451,Li3Fe(PO4)2,4,True,-0.5718904123435333,0.048870120818079,0.8138979751049954,True,-0.6575255812888625,0.6095775230166287,"['Fe', 'Li', 'O', 'P']"
mp-1202325,LiAl(Si2O5)2,4,False,-1.3953467401256778,-0.2225881124984516,2.7698266368885998,True,-0.9703361147171624,0.0388392223258661,"['Al', 'Li', 'O', 'Si']"
mp-1018135,LiCdAs,3,False,1.6655808526040308,1.2488693303933625,-0.8682128617659177,False,0.9779246149348686,-1.0594176334856775,"['As', 'Cd', 'Li']"
mp-1173944,Li3Mn(CoO3)2,4,True,0.1890816937792779,0.1658486104269216,-0.2361432782941159,False,0.3859984161206208,-0.9172170619487684,"['Co', 'Li', 'Mn', 'O']"
mp-757523,Li2Fe2Si5O13,4,True,-0.935237224039196,-0.1877519509939017,1.5268128807691197,True,-0.44687511512267,0.2365596723457546,"['Fe', 'Li', 'O', 'Si']"
mp-757754,LiFePO4,4,True,-0.4831246685557398,-0.0636974637466165,1.233833224884547,True,-0.8559075076260539,0.5986362830316273,"['Fe', 'Li', 'O', 'P']"
mp-1178014,Li2Cu2Si8O19,4,False,-0.8992259130110106,-0.0970024670438678,-0.6896625145120193,False,-0.622161605043396,-0.0996589983158894,"['Cu', 'Li', 'O', 'Si']"
mp-762351,Li4Ti7O16,3,False,-1.3921596439828987,-0.3551274285554782,0.7885068563259989,True,-0.1432067491805934,-0.3990496822269374,"['Li', 'O', 'Ti']"
mp-29365,Li5BiO5,3,False,0.0276181868101309,0.5391086417945973,0.0524352503354309,True,0.4407545308260312,-0.8861345277800676,"['Bi', 'Li', 'O']"
mp-757079,Li5Ni3(SbO5)2,4,True,0.1557875242554479,0.3521874420671468,-0.7109910542863764,False,0.8861493992691422,-0.0772866206808571,"['Li', 'Ni', 'O', 'Sb']"
mp-756853,LiBSbO3,4,False,-0.2701962190106489,0.1346935465236273,-0.1531312472993189,False,0.0236831142918505,-0.7631434114915131,"['B', 'Li', 'O', 'Sb']"
mp-850893,Li9V12Fe7O48,4,True,-0.129173650070624,-0.1101341911517047,-0.8682128617659177,False,-0.2808384517075704,1.4003435018906545,"['Fe', 'Li', 'O', 'V']"
mp-1111351,Li2CoHgF6,4,True,-0.0172946546240726,0.8742803726884333,-0.8682128617659177,False,0.2225710178520092,-0.7831941811483647,"['Co', 'F', 'Hg', 'Li']"
mp-1100698,Li9Mn2Co5O16,4,True,0.2651149506161833,0.2455341695437879,-0.0709317321054505,False,0.2636548158026502,-0.4016415569476214,"['Co', 'Li', 'Mn', 'O']"
mp-774887,Li4Cu3Ni2Sb3O16,5,True,0.4139296132501093,0.3728456175192865,-0.8682128617659177,False,0.943089979156466,-0.3487705875517487,"['Cu', 'Li', 'Ni', 'O', 'Sb']"
mp-15362,Li3Nd2(BO3)3,4,False,-1.2265033924398867,-0.1472575179252935,2.3746054093872697,True,0.4855729897121579,0.8432336965141446,"['B', 'Li', 'Nd', 'O']"
mp-767727,LiMn2OF5,4,True,-0.753877764082728,0.2196377739422254,-0.8362539069294218,False,0.149609850036846,-0.1386343116184483,"['F', 'Li', 'Mn', 'O']"
mp-676694,LiNbO3,3,False,-1.0094533016121172,-0.2857981162714845,1.1491284526378172,True,0.4301358831779871,0.6982614963490859,"['Li', 'Nb', 'O']"
mp-1175778,Li9Mn2Co5O16,4,True,0.1575196894156389,0.2171582389193088,-0.5308156754306224,False,0.3182103214259233,-0.4177826613895062,"['Co', 'Li', 'Mn', 'O']"
mp-770529,Li8Mn15CrO32,4,True,-0.1156402787457578,-0.153301303220494,-0.6547920447221991,False,0.1732096836097012,0.4883753709627795,"['Cr', 'Li', 'Mn', 'O']"
mp-1235579,LiV6O11F,4,False,-0.5432821562733923,-0.3263790641745133,-0.3218636952920056,False,0.3240660287530594,-0.6634028121841551,"['F', 'Li', 'O', 'V']"
mp-37207,Li5GaO4,3,False,-0.0772058836936857,0.579343420652754,1.7791667466072991,True,-0.6038705037848513,-0.6709545051665541,"['Ga', 'Li', 'O']"
mp-1235049,K2LiH2(SeO3)2,5,False,0.5155721402762955,0.6114109094575735,-0.4283709748636333,False,-0.7632856290682913,-0.6114106305021079,"['H', 'K', 'Li', 'O', 'Se']"
mp-1210974,LiH2CN5,4,False,1.75809745086352,0.0803704949118911,1.976540376582693,True,-1.3907122194823225,-0.1940214876305662,"['C', 'H', 'Li', 'N']"
mp-1177285,Li4V2Si(PO6)2,5,False,-0.8000643707312469,-0.0737312818559262,0.4106192992444649,True,-0.5710916350768896,1.487675829575389,"['Li', 'O', 'P', 'Si', 'V']"
mp-777582,Li6MnV3(PO4)6,5,True,-0.7726288485827388,-0.1093003535467564,-0.8377435192311234,False,-0.5485903338808893,1.4429437992089087,"['Li', 'Mn', 'O', 'P', 'V']"
mp-1176057,Li9Mn2Co5O16,4,True,0.1932028185561679,0.2265688949803478,-0.8322590375748598,False,0.2770111286825544,-0.4056516667431746,"['Co', 'Li', 'Mn', 'O']"
mp-764224,Li2V2O5F2,4,False,-0.6259601697950926,0.0402274321289674,0.7973768204861289,True,-0.8150740837493388,-0.3527910995881372,"['F', 'Li', 'O', 'V']"
mp-1290754,Li2TiFe3O8,4,True,-0.1907590516743449,-0.1012952681491883,-0.6300103127938993,False,0.1032828311260962,-0.3606575326454947,"['Fe', 'Li', 'O', 'Ti']"
mp-1177402,Li4FeCu3(PO4)4,5,True,-0.3026665521572889,0.1197710447524714,-0.8682128617659177,False,-0.0334962927016494,-0.3904797080056352,"['Cu', 'Fe', 'Li', 'O', 'P']"
mp-759424,Li7Bi2P7O24,4,False,-0.6608142173372978,0.0747591698655631,2.203029156091336,True,-0.2043630550827535,1.7332241818459695,"['Bi', 'Li', 'O', 'P']"