material_id,formula_pretty,n_elements,contains_transition_metal,formation_energy_per_atom,energy_per_atom,band_gap,is_semiconductor,density,volume,elements
mp-766400,Li3Cr4(PO4)6,4,False,-0.5474890035351953,-0.1393608122260561,-0.8682128617659177,False,-0.3024235321909945,1.0839551524466071,"['Cr', 'Li', 'O', 'P']"
mp-1222700,Li3Ta12O31,3,False,-1.34206526839078,-0.7170197450786698,-0.8682128617659177,False,2.4348121672683822,0.5061880433684685,"['Li', 'O', 'Ta']"
mp-1273740,Li2FeWO6,4,True,-0.012880084273515,-0.0585322018986783,-0.8103888205998847,False,1.245250948153923,-0.6407512101405799,"['Fe', 'Li', 'O', 'W']"
mp-758638,Li2CoSiO4,4,True,-0.5838059346949571,0.073015667311485,1.0267771149480962,True,-0.3420631184494669,-0.2616957383495782,"['Co', 'Li', 'O', 'Si']"
mp-782648,LiMn(PO3)4,4,True,-0.5819727635163179,-0.0994515548494893,-0.2098719340641155,False,-0.8064919177517128,1.6090002547860276,"['Li', 'Mn', 'O', 'P']"
mp-8756,KLiSe,3,False,0.6714475467131849,1.0836797545980033,0.8413880930363882,True,-0.6092562407030215,-0.8160048048916053,"['K', 'Li', 'Se']"
mp-768968,Li4B4Sb2SO16,5,False,-0.4004636560804406,0.0800107748673101,0.8842483015353324,True,-0.4210495590774198,0.613453437237639,"['B', 'Li', 'O', 'S', 'Sb']"
mp-1235481,LiLa2Co2Sb2(PbO6)2,6,True,-0.1069856984771961,0.1135947988086721,-0.8151284961052973,False,2.432127846197792,-0.4249505362986753,"['Co', 'La', 'Li', 'O', 'Pb', 'Sb']"
mp-1175676,Li9Mn2Co5O16,4,True,0.178457857882865,0.2226802294716832,-0.4986535916438943,False,0.2869596207939962,-0.408613714083484,"['Co', 'Li', 'Mn', 'O']"
mp-775015,Li2Cr3NiO8,4,True,-0.0224301515194921,-0.0866158215673259,-0.3602550668858473,False,0.2405038538705954,-0.822139634342015,"['Cr', 'Li', 'Ni', 'O']"
mp-1020023,Li3AlSiO5,4,False,-1.1009984102714907,0.0983183880167647,2.4798262056074285,True,-0.8132490285542336,-0.0585801703063454,"['Al', 'Li', 'O', 'Si']"
mp-807998,Li4V3CrO8,4,False,2.86169741260682,0.767939420566885,-0.8682128617659177,False,0.160265560799755,-0.8048025432605084,"['Cr', 'Li', 'O', 'V']"
mp-1175617,Li9Mn2Co5O16,4,True,0.147496461654242,0.2145148286759838,-0.6130151906244907,False,0.327147448958261,-0.4203676581835803,"['Co', 'Li', 'Mn', 'O']"
mp-26311,Li5Cu(PO4)2,4,False,-0.6004789285168322,0.2187407615673174,0.566012946171919,True,-0.6125115078650095,-0.2631982546465139,"['Cu', 'Li', 'O', 'P']"
mp-1235837,Sr4LiTb2(RuO6)2,5,False,-0.83738342675737,-0.0068003091553244,-0.8682128617659177,False,1.5942508414914585,-0.4020724342635304,"['Li', 'O', 'Ru', 'Sr', 'Tb']"
mp-14488,Li3In2(PO4)3,4,False,-0.6708538492995798,0.1016177756748984,1.762577882338355,True,0.053307766244992,1.4429343958337046,"['In', 'Li', 'O', 'P']"
mp-985585,Li3ClO,3,False,-0.0992307621064796,0.7858651210882099,2.4692635001953662,True,-1.1655109440960645,-1.0655796352258984,"['Cl', 'Li', 'O']"
mp-1222420,LiFe4(PO4)4,4,True,-0.3977112654234254,-0.1517117925396849,-0.6680631361373544,False,-0.0486097539722435,-0.4425449118702476,"['Fe', 'Li', 'O', 'P']"
mp-757793,Li2Nb(PO4)2,4,False,-0.8130604519586953,-0.1115413073752265,-0.6628494930813998,False,-0.3459387140515094,-0.3580211641020688,"['Li', 'Nb', 'O', 'P']"
mp-757998,Li2Ni3TeO8,4,True,0.5771344609158581,0.366950516822884,-0.5118569734089715,False,0.8076127231306462,-0.8071878872248432,"['Li', 'Ni', 'O', 'Te']"
mp-754357,LiFePO4,4,True,-0.4642516519027903,-0.0587201124651273,1.170592411712328,True,-0.526792817275428,-0.7275382383561593,"['Fe', 'Li', 'O', 'P']"
mp-15472,Ba4LiCu(CO5)2,5,False,-0.5589389170030843,0.0756726889325762,-0.5010234293965999,False,0.8651023954432531,-0.4739175489587557,"['Ba', 'C', 'Cu', 'Li', 'O']"
mp-26707,LiV3(P3O10)2,4,False,-0.697876201585749,-0.1986748766774503,0.2772312885921397,True,-0.754902161477485,1.1963146562976847,"['Li', 'O', 'P', 'V']"
mp-1097095,SrLi2Ge,3,False,3.515385891496148,1.7308235364255085,-0.7597420023420478,False,-2.3808564259079503,3.1176950695125663,"['Ge', 'Li', 'Sr']"
mp-976334,Li3Tc,2,False,2.8477348691945235,-0.1129856542617866,-0.8682128617659177,False,-0.3008884940230291,-1.0655250777527072,"['Li', 'Tc']"
mp-776520,NaLiTiAl(PO4)3,6,False,-1.0822177161518314,-0.1288844938781316,0.8752429180750485,True,-0.6165969530743315,0.0830180909373997,"['Al', 'Li', 'Na', 'O', 'P', 'Ti']"
mp-757395,Li11(RuO3)8,3,False,0.2761022904625536,0.1679551655445191,-0.8682128617659177,False,0.7036024976629145,0.028913734715043,"['Li', 'O', 'Ru']"
mp-1174676,Li4MnCo2O7,4,True,0.1625953141438001,0.2200088270060105,-0.6842457425058336,False,0.2645432888190354,-0.5151116166200038,"['Co', 'Li', 'Mn', 'O']"
mp-766588,Li12V3CoP4(CO7)4,6,True,-0.4621251818505506,-0.0026774305887366,-0.2710814577340147,False,-0.687124561280236,0.3728894115170958,"['C', 'Co', 'Li', 'O', 'P', 'V']"
mp-1100648,Li9Mn2Co5O16,4,True,0.2024417252943802,0.2290054574620439,-0.8682128617659177,False,0.2617576738562275,-0.4010688219627129,"['Co', 'Li', 'Mn', 'O']"
mp-1177267,Li4V3Cu(PO4)4,5,False,-0.6203476946893526,-0.07367887584642,-0.7797840587649351,False,-0.2128993973973497,-0.3663218855964854,"['Cu', 'Li', 'O', 'P', 'V']"
mp-756110,Li2Fe(CuO3)2,4,True,0.6966521276620611,0.3990380169193328,-0.8682128617659177,False,0.4375374743498976,-0.919355685520326,"['Cu', 'Fe', 'Li', 'O']"
mp-1175392,Li9Co7O16,3,True,0.2946002094826556,0.2900973331936632,-0.5381283176389725,False,0.7082668326136736,-0.5092720123060708,"['Co', 'Li', 'O']"
mp-752957,Li4CrSb(WO6)2,5,False,-0.3011229688992192,-0.0887358348936838,0.2742520639887381,True,1.5029732782152212,-0.6294977887762182,"['Cr', 'Li', 'O', 'Sb', 'W']"
mp-1040079,LiMg30CrO32,4,False,-1.124174961190733,0.2502865015753103,1.7049569701225544,True,-0.1642421348316682,0.5405044817118868,"['Cr', 'Li', 'Mg', 'O']"
mp-1175177,Li7Mn2(CoO4)3,4,True,0.2756997551094856,0.2518536870063542,-0.8682128617659177,False,0.1321377049935106,-0.5977427238707463,"['Co', 'Li', 'Mn', 'O']"
mp-9158,LiCuO2,3,False,0.5758127611719287,0.5369821956398318,-0.6540472385713479,False,0.5701116294155744,-1.1313749888611353,"['Cu', 'Li', 'O']"
mp-1147646,LiCuN,3,False,2.194748910724702,-0.0452123680396564,-0.8682128617659177,False,0.3761567811686885,-1.1442024124497987,"['Cu', 'Li', 'N']"
mp-1185327,LiDy2Tl,3,False,1.8618689889464928,-6.640525370894876,-0.8682128617659177,False,3.195620399406653,-0.9365458141641042,"['Dy', 'Li', 'Tl']"
mp-758612,LiMn(PO3)3,4,True,-0.6811266212643801,-0.1299362360628511,1.822230084056476,True,-0.7094713363728015,0.8923998819632016,"['Li', 'Mn', 'O', 'P']"
mp-675473,Li7MnAs4,3,True,1.5711634737300595,0.9568215951813598,-0.8682128617659177,False,-0.4361781403818603,0.0098706964451789,"['As', 'Li', 'Mn']"
mp-1177735,Li3Fe2(P2O7)2,4,True,-0.5848866676131792,-0.0485755047361843,-0.601369130811192,False,-0.479573864730795,1.7993038583139676,"['Fe', 'Li', 'O', 'P']"
mp-1177129,Li5Fe6P5O24,4,True,-0.3576695038193207,-0.0512343845004924,0.0867640429246325,True,-0.1403918710644172,-0.0075485531388771,"['Fe', 'Li', 'O', 'P']"
mp-26205,Li3Cr3(PO4)4,4,False,-0.7248498988263936,-0.1646937300286003,1.013167475282554,True,-0.5636524063974228,0.5978419454471627,"['Cr', 'Li', 'O', 'P']"
mp-1175204,Li7Mn4CoO12,4,True,-0.0835589644459176,0.1080575282031589,-0.8682128617659177,False,0.14284869092048,0.0181590304156922,"['Co', 'Li', 'Mn', 'O']"
mp-1391065,LiFe2F5,3,True,1.647743093858197,0.942626255888897,-0.1033646544924873,False,-0.1391344048490246,-0.6598163277769482,"['F', 'Fe', 'Li']"
mp-752853,Li2FeSiO4,4,True,-0.6319141712236299,0.0118515848147658,1.323142253336535,True,-0.4207885961235961,-0.2438617330151316,"['Fe', 'Li', 'O', 'Si']"
mp-1177110,Li6MnV3(PO4)6,5,True,-0.740376050362145,-0.1007943733154611,-0.552821311705752,False,-0.5528809577374567,1.448824272064243,"['Li', 'Mn', 'O', 'P', 'V']"
mp-760789,Li7V3P8O29,4,False,-0.7802647669115488,-0.0710219453235039,-0.1622043404096802,False,-0.767721805586461,2.1264738689944744,"['Li', 'O', 'P', 'V']"
mp-850795,Li7Fe(O2F)2,4,True,-0.323016805934413,0.5115803358899456,0.9185093844744578,True,-0.845905291962747,-0.4418190963825339,"['F', 'Fe', 'Li', 'O']"
mp-768410,Li3MnB4O9,4,True,-0.6764192646073427,-0.1097972253524203,-0.3200355347399179,False,-0.7546223025640426,-0.2763632026993671,"['B', 'Li', 'Mn', 'O']"
mp-756408,Li3MnO3,3,True,-0.1397341522296321,0.269493871697257,0.1827086170841986,True,-0.5246724571983898,-0.4378656840508212,"['Li', 'Mn', 'O']"
mp-25462,Li3TiPCO7,5,False,-0.5001102082645827,0.0029458399292283,-0.7993521476372812,False,-0.7503297624982934,-0.4221865469066616,"['C', 'Li', 'O', 'P', 'Ti']"
mp-1176042,Li9Mn2Co5O16,4,True,0.1902891506530858,0.2258004778831809,-0.8682128617659177,False,0.3212191482472996,-0.4186547647305278,"['Co', 'Li', 'Mn', 'O']"
mp-1176742,LiFe2(PO3)5,4,True,-0.511963183543632,-0.1119168489683141,-0.5077266847542549,False,-0.6845064918535387,0.5675184241412677,"['Fe', 'Li', 'O', 'P']"
mp-1642451,Li4Ti3(CoO4)3,4,True,-0.4993974673474076,-0.0713575876498955,-0.1943664241964081,False,0.1226637146429998,0.0787287758315428,"['Co', 'Li', 'O', 'Ti']"
mp-1198560,LiAlP2,3,False,1.786393117426911,0.0424620325553589,-0.8682128617659177,False,-0.9881390688261188,0.3795420910727158,"['Al', 'Li', 'P']"
mp-1305682,Li3Mn4SnO8,4,True,-0.1205113065737355,-0.0519923426654495,-0.8682128617659177,False,0.6465909358845658,-0.2474156065367405,"['Li', 'Mn', 'O', 'Sn']"
mp-754179,LiMn(PO4)2,4,True,-0.324672960090603,-0.0335285241450864,-0.6623078158807812,False,-0.5320849106130179,-0.4208995408980139,"['Li', 'Mn', 'O', 'P']"
mp-26001,LiNi(PO3)3,4,True,-0.5761890056784499,-0.0321723489861716,2.349755967808893,True,-0.3647591051660859,0.5723794928760537,"['Li', 'Ni', 'O', 'P']"
mp-1176035,Li9Mn2Co5O16,4,True,0.1737503402710038,0.2214387231852798,-0.5055599759517805,False,0.292174979053503,-0.4101581204558442,"['Co', 'Li', 'Mn', 'O']"
mp-1174720,Li4MnCo2O7,4,True,0.3010087214911761,0.2565123793052733,-0.7447781696749596,False,0.2416952535053586,-0.5091061100126494,"['Co', 'Li', 'Mn', 'O']"
mp-767467,Li7Y7Zr9S32,4,False,0.0053052477138591,0.1248511365404528,-0.0455406133264548,False,-0.3327816218869454,2.473604487316722,"['Li', 'S', 'Y', 'Zr']"
mp-757919,LiVP2O7,4,False,-0.7469317787366645,-0.1474679492953059,0.5108295813589008,True,-0.6462905109161398,-0.4396680390053101,"['Li', 'O', 'P', 'V']"
mp-1235020,Sr4LiSm2Ta2O12,5,False,-1.4373354825994191,-0.2388948574907875,-0.8682128617659177,False,1.8817260071858115,-0.3526057701487364,"['Li', 'O', 'Sm', 'Sr', 'Ta']"
mp-1236608,LiCr2Cu2(WO4)4,5,False,0.0109308012051044,-0.3201043207663043,-0.5685976601737681,False,2.3821162232246,-0.4318230871149091,"['Cr', 'Cu', 'Li', 'O', 'W']"
mp-1174862,Li4MnCo2O7,4,True,0.4697152625493355,0.3010050925674256,-0.8682128617659177,False,0.2217330833536304,-0.5037768861560169,"['Co', 'Li', 'Mn', 'O']"
mp-1174868,Li7Mn2(CoO4)3,4,True,0.1032955725480666,0.2063858005107352,-0.4848408230281206,False,0.2023949357200085,-0.6143361514272576,"['Co', 'Li', 'Mn', 'O']"
mp-774919,Li3V3(CoO6)2,4,True,-0.0860701001471362,-0.0307337567829811,-0.0303736517091339,False,-0.3663677628117847,1.6574354032597058,"['Co', 'Li', 'O', 'V']"
mp-1175748,Li9Mn2Co5O16,4,True,0.1532921570980317,0.2160433184068379,-0.0196078173468405,False,0.2910126628027503,-0.4098144258843766,"['Co', 'Li', 'Mn', 'O']"
mp-1174531,Li4MnCo2O7,4,True,0.118002850941507,0.2082485261518272,-0.0956457543836725,False,0.2468956298064097,-0.5104817589872357,"['Co', 'Li', 'Mn', 'O']"
mp-26219,LiMnPO4,4,True,-0.7029186739533934,-0.1503463113118594,1.4878121223245822,True,-0.2086373392480698,-0.3632212673007785,"['Li', 'Mn', 'O', 'P']"
mp-1174790,Li4MnCo2O7,4,True,0.1814995818082906,0.2249944200680914,-0.8682128617659177,False,0.2702813564667965,-0.5166043305890142,"['Co', 'Li', 'Mn', 'O']"
mp-861651,Li2PdPb,3,False,1.7746095319702917,1.0847984205834609,-0.8682128617659177,False,3.170316656925176,-1.0531570587945225,"['Li', 'Pb', 'Pd']"
mp-1175614,Li9Mn2Co5O16,4,True,0.2215101054641042,0.2340343316594751,-0.8682128617659177,False,0.2633967749518722,-0.4015637021247391,"['Co', 'Li', 'Mn', 'O']"
mp-1175661,Li9Mn2Co5O16,4,True,0.1819221110668711,0.2235938515672863,-0.8682128617659177,False,0.2721413218235862,-0.4041940135203177,"['Co', 'Li', 'Mn', 'O']"
mp-754870,Li2RhO3,3,False,0.240834706683665,0.3437042100117449,-0.8682128617659177,False,0.9535147658638105,-0.9328062720166648,"['Li', 'O', 'Rh']"
mp-859115,LiNi(PO3)4,4,True,-0.4157624142563408,-0.001103605880545,-0.8682128617659177,False,-0.692419279075234,0.1093003260782736,"['Li', 'Ni', 'O', 'P']"
mp-775226,LiMn2(BO3)2,4,True,-0.495803062758397,-0.2611296729187938,-0.4794917606720115,False,-0.4226423034893655,0.2036851825061977,"['B', 'Li', 'Mn', 'O']"
mp-861624,LiLaHg2,3,False,1.5974860476558166,-7.53263647100115,-0.8682128617659177,False,3.567239032309004,-0.9493410149296888,"['Hg', 'La', 'Li']"
mp-1096075,LiSnHg2,3,False,2.917970511172456,1.834071835511124,-0.746741749527202,False,-1.9505401738623789,1.787625466778714,"['Hg', 'Li', 'Sn']"
mp-1246754,Li3IrN2,3,False,1.976443164726981,0.5492120096616426,-0.8682128617659177,False,1.9912867158250676,0.136514081071277,"['Ir', 'Li', 'N']"
mp-1022597,LiMg6Zn,3,False,2.1697160875705603,1.6412400779635554,-0.8682128617659177,False,-1.0861619513733136,-0.2543659812231592,"['Li', 'Mg', 'Zn']"
mp-1175635,Li9Mn2Co5O16,4,True,0.1602975354849947,0.2178908359358504,-0.0435093238241345,False,0.6241101422545197,-0.4978759342224818,"['Co', 'Li', 'Mn', 'O']"
mp-1177571,Li3MnV(PO4)3,5,True,-0.7047895216011109,-0.0919757735945876,-0.4259334274608498,False,-0.3975509938706883,1.263309788541818,"['Li', 'Mn', 'O', 'P', 'V']"
mp-774262,Li6Cr3Cu(PO4)6,5,False,-0.5887899091606211,-0.0364778784583242,-0.8680097328156864,False,-0.4797448026839858,0.075528795382768,"['Cr', 'Cu', 'Li', 'O', 'P']"
mp-1097511,LiTa2Os,3,False,6.71248434703089,-7.756882538622606,-0.8682128617659177,False,-1.83264755337009,1.4131756425607844,"['Li', 'Os', 'Ta']"
mp-772646,Li6V3P8O29,4,False,-0.750969900399919,-0.0817771237311234,-0.1174482617085702,False,-0.7779805008158185,2.1206870124951878,"['Li', 'O', 'P', 'V']"
mp-758471,LiCoSiO4,4,True,-0.3713210712750346,0.0207820702847893,-0.2431850819021573,False,0.0040936564171365,-0.4316280912184319,"['Co', 'Li', 'O', 'Si']"
mp-1178064,Li2(CoO2)3,3,True,0.6055790366877927,0.2502080963714845,-0.8333423919760968,False,0.23940949653184,-0.5689286339713133,"['Co', 'Li', 'O']"
mp-772573,Li2Cr5B3O13,4,False,-0.5458348755382092,-0.3264635450354241,0.0186481349468472,True,0.0262336179900111,0.063347465914934,"['B', 'Cr', 'Li', 'O']"
mp-1020107,LiCaAl3N4,4,False,0.6892827924529586,0.1568242970406959,1.226046615125655,True,-0.509857161782156,1.1237488653639345,"['Al', 'Ca', 'Li', 'N']"
mp-26281,Li3Sb5(PO4)6,4,False,-0.4877664839054889,0.0539387171006586,1.8138340874468883,True,0.0536985374751405,0.2632983687865868,"['Li', 'O', 'P', 'Sb']"
mp-766923,LiVSiO4,4,False,-0.9464522621397669,-0.2117434960675236,0.4075723649909846,True,-0.2133315640011728,-0.3999149851610115,"['Li', 'O', 'Si', 'V']"
mp-775440,Li2Cr3NiO8,4,True,-0.0352870810685175,-0.0900065595687602,-0.4532204164420105,False,0.2150480459210465,0.4414387530687249,"['Cr', 'Li', 'Ni', 'O']"
mp-772390,LiAlFeO4,4,True,-0.3280886903235602,0.0464066189353076,-0.8682128617659177,False,-0.0255937035939469,-0.4436479231050111,"['Al', 'Fe', 'Li', 'O']"
mp-569782,Sr2LiCBr3N2,5,False,0.2791943476740804,0.4482546018787435,1.879986415572432,True,0.0405307370351518,1.086667974460258,"['Br', 'C', 'Li', 'N', 'Sr']"
mp-849607,Li5Mn4(P2O7)4,4,True,-0.6318301616834222,-0.0983409752774947,-0.7449812986251921,False,-0.5106182064697379,1.8125561747188648,"['Li', 'Mn', 'O', 'P']"
mp-752708,LiVPO4,4,False,-0.6518760662612209,-0.1336473234847379,0.6876871873608668,True,-0.5952656975266181,-0.2132681587026191,"['Li', 'O', 'P', 'V']"
mp-1209608,Rb2LiSe2,3,False,1.923949502140912,1.4158489343448208,-0.8682128617659177,False,-0.7172348770812121,-0.6369586169547868,"['Li', 'Rb', 'Se']"
mp-765603,Li4FeCo3O8,4,True,0.3575909091511778,0.2351004135314338,-0.8129617873028236,False,0.5767296424599359,-0.8343607704593925,"['Co', 'Fe', 'Li', 'O']"
mp-763655,LiMn3O6,3,True,-0.0044038717011172,-0.1766781956749543,-0.6591254623271477,False,0.190686899506902,0.0344880723071667,"['Li', 'Mn', 'O']"
mp-756983,Li10Cu(SiO5)2,4,False,-0.4693427457441618,0.3613779490404927,-0.6305519899945172,False,-0.875702274919721,0.1332217889767627,"['Cu', 'Li', 'O', 'Si']"
mp-603606,Li2Fe3(P2O7)2,4,True,-0.4969609152802196,-0.1081559788060784,0.598987545759575,True,-0.5959381378422635,0.5369579044771472,"['Fe', 'Li', 'O', 'P']"
mp-1344975,Li4MnO2F3,4,True,0.4584824892189184,0.7185703242429133,-0.8222380093634167,False,-0.4387773290763027,-0.7060484862593529,"['F', 'Li', 'Mn', 'O']"
mp-1279412,Li3Cr(CoO3)2,4,True,0.0743615930400089,0.1237210065267896,-0.5595245670634063,False,0.3913980950561037,-0.6039875909776534,"['Co', 'Cr', 'Li', 'O']"
mp-759350,Li2U(WO5)2,4,False,-0.7191739161784317,-0.4015683604587779,0.3243572050459565,True,1.9223524623734105,1.0193116480893325,"['Li', 'O', 'U', 'W']"
mp-1193172,Li2Mn(SO4)2,4,True,-0.2418072864513001,0.1170863805997675,1.5553863531017496,True,-0.7563192666637397,0.6722447757457913,"['Li', 'Mn', 'O', 'S']"
mp-504102,Li(NiO2)2,3,True,0.8436637921324309,0.3825940171288751,-0.8682128617659177,False,0.7408932839203473,-0.8663581998941655,"['Li', 'Ni', 'O']"
mp-675926,LiBH4,3,False,1.7256325746772043,0.9218069031059742,3.1031612442192555,True,-1.9348702196275631,-0.9947538636058704,"['B', 'H', 'Li']"
mp-14457,Na3Li3Ti2F12,4,False,-1.4812521930543958,0.4443656703027196,-0.8682128617659177,False,-0.6955408803638686,1.6877040932815677,"['F', 'Li', 'Na', 'Ti']"
mp-768164,LiGePCO7,5,False,-0.2916710578668174,-0.0103186934130845,1.7702290727970929,True,-0.5905822880992331,-0.4537053566589796,"['C', 'Ge', 'Li', 'O', 'P']"
mp-799788,Li2NiO2F,4,True,1.448989097062917,0.8856593488486949,-0.8682128617659177,False,0.1383946394413954,-0.6392010811811911,"['F', 'Li', 'Ni', 'O']"
mp-1097058,LiMn2O4,3,True,-0.0816729570299436,-0.1417990149980071,-0.6326509891469141,False,0.1839212692828065,2.6389650838288987,"['Li', 'Mn', 'O']"
mp-768561,Li3MnV(PO4)3,5,True,-0.7253083288498239,-0.0973871666660845,-0.2848942263497884,False,-0.6295318648694322,0.1669473882424484,"['Li', 'Mn', 'O', 'P', 'V']"
mp-15794,LiYSe2,3,False,0.0060438335928187,-2.182493784498706,0.163614495762393,True,0.5488457933096209,-0.9719250632743422,"['Li', 'Se', 'Y']"
mp-1184981,Li2NdPb,3,False,1.7896220089335582,1.1186235725622355,-0.8682128617659177,False,2.1609535944518057,-0.9871922487730078,"['Li', 'Nd', 'Pb']"
mp-759680,LiSi2BiO6,4,False,-0.837450423774853,-0.026572260540432,1.662435309873996,True,0.8844656249334278,-0.5422138750190183,"['Bi', 'Li', 'O', 'Si']"
mp-759780,Li2Nb6NiO18,4,True,-0.7712419818772277,-0.3761827440040707,-0.0286809104572009,False,0.5714483141294292,0.6738531273322493,"['Li', 'Nb', 'Ni', 'O']"
mp-1101482,NaLi2FePCO7,6,True,-0.368472859155794,0.037498818946912,1.8346209500206252,True,-0.6023782132273005,0.4288479151665769,"['C', 'Fe', 'Li', 'Na', 'O', 'P']"
mp-774421,Li3Fe8(BO3)8,4,True,-0.3032981382294526,-0.1989423733951692,0.2847470597507223,True,-0.3649606912468223,0.1653679434329586,"['B', 'Fe', 'Li', 'O']"
mp-1277622,LiVGaO4,4,False,-0.442604994281265,0.0204993874623892,0.2504182671615206,True,0.3455795528618051,-0.3768631441960452,"['Ga', 'Li', 'O', 'V']"
mp-17240,RbNa3Li12(SiO4)4,5,False,-0.714760871363069,0.3123179373230605,2.3839493410979404,True,-0.7552300685887312,-0.1295859806320649,"['Li', 'Na', 'O', 'Rb', 'Si']"
mp-779905,Li3Mn2Fe(BO3)3,5,True,-0.5229217593894053,-0.1641890523552649,1.114731950398537,True,-0.3569100920223587,-0.1560580622546269,"['B', 'Fe', 'Li', 'Mn', 'O']"
mp-867342,Li3Ge,2,False,1.811545543250766,1.2657685159503622,-0.8682128617659177,False,-0.7363221823117381,-1.0690169295242398,"['Ge', 'Li']"
mp-756115,Li3Fe5(CoO6)2,4,True,0.3731074718593505,0.031856132106989,-0.4536266743424744,False,0.5835215547310897,-0.6054761131550899,"['Co', 'Fe', 'Li', 'O']"