material_id,formula_pretty,n_elements,contains_transition_metal,formation_energy_per_atom,energy_per_atom,band_gap,is_semiconductor,density,volume,elements
mp-766800,LiFe2(PO4)2,4,True,-0.4211215255683542,-0.1182046205018179,0.1295565417735008,True,-0.6545480204006565,1.9645230545201904,"['Fe', 'Li', 'O', 'P']"
mp-1236250,LiCo5SbO8,4,True,0.5946581976190436,0.1232015457374116,-0.255711367166462,False,1.2411945221465983,-0.7665052629079774,"['Co', 'Li', 'O', 'Sb']"
mp-769589,LiV3CrO8,4,False,-0.4429183797516018,-0.3278102399093939,-0.0559001897882844,False,-0.0379245251722348,-0.3560111605240839,"['Cr', 'Li', 'O', 'V']"
mp-753814,LiMn3(OF3)2,4,True,-0.6927384886295794,0.1283967741843605,-0.665219330834106,False,0.0741503140198489,-0.4489558523558638,"['F', 'Li', 'Mn', 'O']"
mp-775925,Li8Sb7S19,3,False,1.286943518201226,0.8301858282352857,-0.8682128617659177,False,-0.2384727945878552,3.0486715063450927,"['Li', 'S', 'Sb']"
mp-764484,LiMnV(P2O7)2,5,True,-0.6788281325632171,-0.175127518310907,0.0470184783292452,True,-0.5702621127736608,1.0487455731989326,"['Li', 'Mn', 'O', 'P', 'V']"
mp-1185251,LiY2Hg,3,False,1.8494070385114416,-4.674587282839639,-0.8682128617659177,False,1.7449677742334977,-0.947555947016395,"['Hg', 'Li', 'Y']"
mp-801976,Li3V3O5F3,4,False,1.2667062340577036,0.5576265637243993,-0.8682128617659177,False,-0.2687882448348692,-0.7933231010263998,"['F', 'Li', 'O', 'V']"
mp-756369,LiAlVO4,4,False,-0.899726019774283,-0.1297957199661218,0.1651718177141714,True,-0.1459861060764072,-0.4297981278999762,"['Al', 'Li', 'O', 'V']"
mp-757633,Li3V3P8O29,4,False,-0.6050592374278801,-0.1038970429624513,-0.1282140960708644,False,-0.8598110422836196,2.2063306070530064,"['Li', 'O', 'P', 'V']"
mp-1210006,NaLiTm2F8,4,False,-2.2724517273488987,0.2738829324098085,4.245219912073448,False,1.3098793977878305,-0.3648756378443518,"['F', 'Li', 'Na', 'Tm']"
mp-8702,LiGaGeO4,4,False,-0.3265631757169773,0.236004784655254,1.098346215079825,True,0.0899899480196819,0.34151998996084,"['Ga', 'Ge', 'Li', 'O']"
mp-756454,Li3V4NiO12,4,True,-0.2795003294430215,-0.0904107520691931,-0.8097794337491895,False,0.1557209188908217,-0.6659868944072581,"['Li', 'Ni', 'O', 'V']"
mp-1175094,Li7Mn2(CoO4)3,4,True,0.1634294169225943,0.2222448056111027,-0.8682128617659177,False,0.1641909268191017,-0.6054212755514464,"['Co', 'Li', 'Mn', 'O']"
mp-771170,Li3Zn2Fe19O32,4,True,0.3027268599164955,-0.0783121789009649,0.0285337438581362,True,0.6024603281816202,0.5400152076359358,"['Fe', 'Li', 'O', 'Zn']"
mp-754641,Li2MnCrO4,4,True,-0.3031939924131742,-0.0798862977865789,-0.8682128617659177,False,0.2598597608370267,-1.0240279591643209,"['Cr', 'Li', 'Mn', 'O']"
mp-637249,LiEu2Ge3,3,False,1.5021480983475934,0.1768983354868857,-0.8682128617659177,False,1.603188418058317,0.4119180737214621,"['Eu', 'Ge', 'Li']"
mp-770709,RbLi2Fe2(BO3)3,5,True,-0.4593675568494987,-0.0554602007492924,0.7592562874925963,True,-0.4984884497205324,-0.0016936484462143,"['B', 'Fe', 'Li', 'O', 'Rb']"
mp-1211132,Li5OsO6,3,False,-0.0821753067611212,0.2970180654568618,-0.8682128617659177,False,0.9880737438814534,-0.943749380714417,"['Li', 'O', 'Os']"
mp-757358,LiMnPO5,4,True,-0.4121035128963254,-0.0651398008027751,-0.0168994313437468,False,-0.2488318789284094,-0.2568290353776989,"['Li', 'Mn', 'O', 'P']"
mp-1222624,Li2SO4,3,False,-0.0764981781029642,0.3684327136345437,1.7857345826647997,True,-1.4445088873646763,-0.9068424439429872,"['Li', 'O', 'S']"
mp-771313,Li7Mn3(WO8)2,4,True,-0.1420867993583164,-0.0109270518661287,-0.800164663438209,False,0.6920802178431533,-0.3992787444634207,"['Li', 'Mn', 'O', 'W']"
mp-1177698,Li3Mn2(P2O7)2,4,True,-0.6858124083950637,-0.0926516599494197,-0.7306268528087992,False,-0.531112877648602,1.866680400752795,"['Li', 'Mn', 'O', 'P']"
mp-757500,Li4VFe(WO6)2,5,True,-0.2611708294461003,-0.1329193941114102,-0.0143941742908859,False,1.2729207165713627,-0.6492811858929683,"['Fe', 'Li', 'O', 'V', 'W']"
mp-1040099,LiMg30BO32,4,False,-1.0816295543474903,0.2749881705761515,2.009041008619808,True,-0.230635495240351,0.5343451220170439,"['B', 'Li', 'Mg', 'O']"
mp-38995,Li3MnAs2,3,True,1.682710591817907,0.8108674661213631,-0.8682128617659177,False,0.0283410002980148,-0.6676916499348281,"['As', 'Li', 'Mn']"
mp-1174931,Li7Mn2(CoO4)3,4,True,0.2751049772649095,0.2516968271719493,-0.8682128617659177,False,0.2063179088228578,-0.6152373723579753,"['Co', 'Li', 'Mn', 'O']"
mp-776510,Li3Sb3P8O29,4,False,-0.5072056029726162,0.0222111658091211,0.8941339104466222,True,-0.4826898067912672,2.237991557893349,"['Li', 'O', 'P', 'Sb']"
mp-781053,LiFeP3(HO5)2,5,True,-0.3222770571356146,0.0389448186162479,1.6539716036143306,True,-0.8341633012313604,1.1959781303275543,"['Fe', 'H', 'Li', 'O', 'P']"
mp-757311,Li2Fe3(Si3O8)2,4,True,-0.8623726965854136,-0.2033253875940684,1.1428991648307036,True,-0.4452391167676585,0.6455291190401515,"['Fe', 'Li', 'O', 'Si']"
mp-18220,LiAlSiO4,4,False,-1.360386871100671,-0.0996378715845397,2.6857989611426425,True,-0.7119190578619811,0.1114059738902238,"['Al', 'Li', 'O', 'Si']"
mp-1177912,Li3Fe2(P2O7)2,4,True,-0.592222109529583,-0.0505100694056434,-0.8100502723494988,False,-0.5040940363779497,1.836450100371961,"['Fe', 'Li', 'O', 'P']"
mp-975990,NaLiO3,3,False,1.3630842466871451,0.8482219761010419,-0.8682128617659177,False,-0.9790844087689,-1.074752347194312,"['Li', 'Na', 'O']"
mp-759387,Li3Fe8(BO3)8,4,True,-0.3044543247827352,-0.1992472926737586,0.147702727994223,True,-0.3833140289450426,0.1774853830712013,"['B', 'Fe', 'Li', 'O']"
mp-782655,LiFeP(H6O5)2,5,True,0.4397026020239623,0.4243048658050658,1.8740956760157048,True,-1.2179142826414202,0.08289239534972,"['Fe', 'H', 'Li', 'O', 'P']"
mp-781753,Li3CuP2O7,4,False,-0.4738512954503486,0.1797073343364891,-0.0552230932875119,False,-0.7239431090183911,-0.3097389543915011,"['Cu', 'Li', 'O', 'P']"
mp-753202,Li5CuF8,3,False,-0.8719570764181636,0.3183851643610287,-0.3500309097241716,False,-0.4401927558722696,-0.8501291357547965,"['Cu', 'F', 'Li']"
mp-1236283,LiCo6(OF5)2,4,True,0.0568683429126798,0.4276151998259976,-0.6746986818449319,False,0.3446715833157132,-0.5833078136849411,"['Co', 'F', 'Li', 'O']"
mp-1111553,NaLi2AlF6,4,False,-1.379490833723446,0.1934944249277623,3.0817649947948222,True,-0.921797290252982,-0.8787148361527426,"['Al', 'F', 'Li', 'Na']"
mp-757124,Li2V2O5F2,4,False,-0.6257151381874856,0.0402920539331318,0.5587003039635684,True,-0.4977836017883159,-0.492457876844442,"['F', 'Li', 'O', 'V']"
mp-753165,Li2Fe3NiO8,4,True,0.549788027814775,0.1378484354103418,-0.8682128617659177,False,0.4506079833026183,-0.8391556703188878,"['Fe', 'Li', 'Ni', 'O']"
mp-770688,Li4CrO5,3,False,-0.0941415350208268,0.2944786744137457,0.1008476501407162,True,-0.7377782507920483,-0.6594753386715269,"['Cr', 'Li', 'O']"
mp-775326,Li2Ti3NiO8,4,True,-1.0830473611559637,-0.2570556416276708,1.0009797382686358,True,0.0489250880389023,0.4883734736145212,"['Li', 'Ni', 'O', 'Ti']"
mp-778532,Li2FeF4,3,True,-0.9747560685636378,0.4550417133653796,1.5717720884204618,True,-0.8216911213033887,0.4240878085524999,"['F', 'Fe', 'Li']"
mp-866178,Li2NdAl,3,False,1.9217132114091973,-0.9229002330930562,-0.8682128617659177,False,0.0397950527940607,-1.0051741373302472,"['Al', 'Li', 'Nd']"
mp-1177302,Li5Fe2(PO4)3,4,True,-0.6094008483774973,0.0314024542616755,1.784854357213794,True,-0.5285588677884806,1.5563643580905024,"['Fe', 'Li', 'O', 'P']"
mp-644409,LiAlPHO5,5,False,-0.8379848659395811,0.0538407797992429,3.010872991163865,True,-0.5645744348114404,-0.756737403363994,"['Al', 'H', 'Li', 'O', 'P']"
mp-1176543,LiVFeO4,4,True,-0.1596462494282958,-0.1304422726038303,0.2362669502953598,True,0.0942437201912928,-0.581126176765762,"['Fe', 'Li', 'O', 'V']"
mp-777832,LiV4OF11,4,False,-1.236847058145999,0.1160629005304867,-0.6911521268137204,False,-0.2655728250239908,0.0078474441210075,"['F', 'Li', 'O', 'V']"
mp-753718,Li4Mn3V3(TeO8)2,5,True,-0.1465078217017213,-0.0317328943408037,-0.8682128617659177,False,0.4799122391654246,-0.3187816206137845,"['Li', 'Mn', 'O', 'Te', 'V']"
mp-1302912,Li2V(OF)2,4,False,-0.916080424748647,0.1935453127514939,0.4267341959628675,True,-0.4773439720660429,-0.3866555472147958,"['F', 'Li', 'O', 'V']"
mp-767704,Li9Mn15O32,3,True,-0.0483980370809047,-0.0954436986072825,-0.8682128617659177,False,0.2988637336366875,0.3596403413264479,"['Li', 'Mn', 'O']"
mp-1202217,RbLiSO4,4,False,-0.356852593126297,0.3329766769994371,2.6212039549688773,True,-0.4779345932745145,1.1432472603184904,"['Li', 'O', 'Rb', 'S']"
mp-761710,LiFeCoO4,4,True,0.4461532836146878,0.1101714078559971,-0.8411290017349896,False,0.4062006574931438,-0.8294158329460909,"['Co', 'Fe', 'Li', 'O']"
mp-780850,Li3Mn4(BO3)4,4,True,-0.5418546647938156,-0.2247853339284261,-0.8554834475513818,False,-0.4105508931200216,0.2165990990622784,"['B', 'Li', 'Mn', 'O']"
mp-1211461,KLiDyF5,4,False,-2.018768648616553,0.3815175515998733,4.134650053497181,False,0.619404999779573,0.0068499756721167,"['Dy', 'F', 'K', 'Li']"
mp-861956,LiPm2Ir,3,False,1.61621422259051,-6.2916819938215705,-0.8682128617659177,False,3.520145841676811,-0.977876086939379,"['Ir', 'Li', 'Pm']"
mp-755427,Li2AlNiO4,4,True,-0.2543153128295032,0.2699147291641567,0.4017493350843356,True,-0.4773073328475897,-0.2051862523757096,"['Al', 'Li', 'Ni', 'O']"
mp-1211510,KLiSm2(MoO4)4,5,False,-0.6027179107206251,-0.252611259164076,1.3914612902645525,True,0.6925024063675097,0.7388496754192854,"['K', 'Li', 'Mo', 'O', 'Sm']"
mp-1175663,Li9Mn2Co5O16,4,True,0.1468609514128493,0.2143472265500194,-0.5673111768222984,False,0.3179892483328905,-0.4177185105218781,"['Co', 'Li', 'Mn', 'O']"
mp-1174842,Li4MnCo2O7,4,True,0.1909908744260831,0.2274975438846423,-0.8682128617659177,False,0.2175985915746769,-0.502663362470702,"['Co', 'Li', 'Mn', 'O']"
mp-19294,LiFeP2O7,4,True,-0.6070717952624198,-0.0943904195897862,0.3128465645328117,True,-0.4561095253068965,-0.4983111256414707,"['Fe', 'Li', 'O', 'P']"
mp-754722,Li4Ti3MnO8,4,True,-0.922551356224178,-0.1565172219854199,-0.8682128617659177,False,0.0578263276908756,-0.7953593758667467,"['Li', 'Mn', 'O', 'Ti']"
mp-1523057,LiNdGdFeO6,5,True,-0.6928668675575603,-0.3532620392550761,-0.4676425719084802,False,1.6713752125006875,0.1746940824939769,"['Fe', 'Gd', 'Li', 'Nd', 'O']"
mp-756901,Li4Mn3NbO8,4,True,-0.3731623832616428,-0.0975632681580759,-0.8682128617659177,False,0.2705578779650501,-0.7609441266242203,"['Li', 'Mn', 'Nb', 'O']"
mp-1222469,LiAl(SiO3)2,4,False,-1.3791834718622291,-0.1652512453508038,2.5128685148451617,True,-0.9654400494833396,-0.8514155416210772,"['Al', 'Li', 'O', 'Si']"
mp-777452,LiNbCoO4,4,True,-0.5065516337044884,-0.2087001300718961,0.6664263572365869,True,0.5491069276675209,-0.3033719300312826,"['Co', 'Li', 'Nb', 'O']"
mp-753697,LiFeBO3,4,True,-0.3394673801385606,-0.0934979793209267,1.1284092997141555,True,-0.5680911862707351,-0.4342708485735745,"['B', 'Fe', 'Li', 'O']"
mp-1173887,Li2CoO3,3,True,0.3041072626287617,0.3715564012578788,-0.7094337323345975,False,0.0356419932028722,-0.9335397841124756,"['Co', 'Li', 'O']"
mp-1191481,LiEuAsS3,4,False,0.6817471957729571,0.3025223033891057,-0.8326652954753236,False,0.2908060710323243,0.2743708069583018,"['As', 'Eu', 'Li', 'S']"
mp-757961,Li4Fe3Ni3(SbO8)2,5,True,0.2862429253760562,0.1861846865024753,-0.8682128617659177,False,0.8555756075083227,-0.4077968268113309,"['Fe', 'Li', 'Ni', 'O', 'Sb']"
mp-1235332,LiHo2Cu(SiO3)4,5,False,-1.3131305305279144,-0.2043300668939982,0.2533297821148456,True,0.6668074323657646,-0.5263327071499188,"['Cu', 'Ho', 'Li', 'O', 'Si']"
mp-1100575,Li9Mn2Co5O16,4,True,0.1979830481480282,0.2278295774839657,-0.8682128617659177,False,0.2787708087643578,-0.4061771298525872,"['Co', 'Li', 'Mn', 'O']"
mp-1193645,LiReO5,3,False,0.3695580849523898,0.0156668760639927,-0.2522581750125185,False,0.1567167494727674,0.0766671441842742,"['Li', 'O', 'Re']"
mp-1639253,LiNi2O3,3,True,0.6300421605723802,0.335752632851219,-0.8682128617659177,False,1.055180064146709,-0.6177352136344116,"['Li', 'Ni', 'O']"
mp-1218778,Sr2LiSiN3,4,False,1.0825520511752291,0.343095202092828,-0.8682128617659177,False,-0.0177813433018016,0.0613227255940334,"['Li', 'N', 'Si', 'Sr']"
mp-777511,Li2MnFe(BO3)2,5,True,-0.4886552755751328,-0.1495747721143147,1.2168381027151391,True,-0.3393190180592821,0.1947298691854032,"['B', 'Fe', 'Li', 'Mn', 'O']"
mp-755968,Na5LiFe2P2(CO7)2,6,True,-0.341376285617093,0.0636340700970007,1.7031965192205438,True,-0.5821052018434587,-0.3332657076848617,"['C', 'Fe', 'Li', 'Na', 'O', 'P']"
mp-757434,LiSi6Bi9O26,4,False,-0.4402389898797902,0.0539963182301157,1.081418802560495,True,2.2373266370287186,0.4328286771956011,"['Bi', 'Li', 'O', 'Si']"
mp-1650669,Li7Mn5O12,3,True,-0.1770354329099208,0.0588804166187145,-0.5114507155085083,False,0.0659550527154868,0.0457189602892625,"['Li', 'Mn', 'O']"
mp-504790,LiYSn,3,False,1.4401287174259996,0.7166127218754654,-0.8682128617659177,False,0.9158266171789172,0.3696198580760146,"['Li', 'Sn', 'Y']"
mp-778584,LiMn2(CoO4)2,4,True,0.4112065467810478,-0.0062710352089543,-0.6917615136644164,False,0.5204151500068591,-0.8540961418069898,"['Co', 'Li', 'Mn', 'O']"
mp-14169,Li4UF8,3,False,-1.6810478891709373,-1.460051269610629,-0.6541149482214259,False,0.6090886244979495,0.481135567263764,"['F', 'Li', 'U']"
mp-16828,Li3B7O12,3,False,-0.927622766379282,-0.1811287629293862,2.9944195461950764,True,-0.9472195838520612,-0.0530410472646775,"['B', 'Li', 'O']"
mp-773055,Li3Mg3Ti6O16,4,False,-1.390309540523791,-0.2492028451121157,-0.8682128617659177,False,-0.1864150925606424,0.521287059606039,"['Li', 'Mg', 'O', 'Ti']"
mp-1308103,Li3MnV3O8,4,True,-0.4372581667707453,-0.1573679929437694,-0.6040775168142841,False,0.1173958312683879,-0.3670787699340452,"['Li', 'Mn', 'O', 'V']"
mp-1174381,Li4MnCo2O7,4,True,0.2062013905593554,0.2315089896095223,-0.8682128617659177,False,0.2185115587801841,-0.5029095381444952,"['Co', 'Li', 'Mn', 'O']"
mp-1235080,LiNi9O13,3,True,1.1585930146251373,0.3525254141631318,-0.8682128617659177,False,0.9817759841970958,-0.5551840460051726,"['Li', 'Ni', 'O']"
mp-761225,LiFe4(BO3)4,4,True,-0.2843802535710592,-0.2202350752927218,0.351779613327272,True,-0.3899862587741413,0.1714348748735703,"['B', 'Fe', 'Li', 'O']"
mp-760151,LiAgF3,3,False,-0.0355307250510841,-0.3925922905901244,-0.7086889261837469,False,0.431062291481448,-0.1133977319754479,"['Ag', 'F', 'Li']"
mp-1173911,Li2MnCoO4,4,True,0.1489958351832719,0.1307521212110508,-0.8682128617659177,False,0.3511567834438825,-0.808014496450329,"['Co', 'Li', 'Mn', 'O']"
mp-757746,Li5MnP3O11,4,True,-0.7448595521115806,0.0456353058749987,2.021025616683494,True,-0.7003871918946089,0.0337734719720543,"['Li', 'Mn', 'O', 'P']"
mp-1374732,Li4MnCo2O7,4,True,2.096875086704764,0.730133418201716,-0.8682128617659177,False,0.2364420315400923,-0.5077111908813793,"['Co', 'Li', 'Mn', 'O']"
mp-1175696,Li9Mn2Co5O16,4,True,0.2330054486159951,0.2370659806014731,0.0443778019762289,True,0.2826489743911836,-0.4073328613235323,"['Co', 'Li', 'Mn', 'O']"
mp-753326,LiAg2F6,3,False,0.3701757746667134,-0.422204755356528,-0.8682128617659177,False,0.4790867269950359,-0.8767092306204064,"['Ag', 'F', 'Li']"
mp-766478,LiVCO3F2,5,False,-0.55236749946523,-0.0175122325422315,0.5718359760785686,True,-0.4923483675719937,-0.2462618406478557,"['C', 'F', 'Li', 'O', 'V']"
mp-695962,LiAl(H2N)4,4,False,1.8797763439597688,0.6631651178230862,-0.240882953799529,False,-1.846337603237861,0.659524638782515,"['Al', 'H', 'Li', 'N']"
mp-754619,Li2CrP2O7,4,False,-0.7325848653451004,-0.0794983454273135,0.6444207209614581,True,-0.7661320087823076,-0.3553342395573495,"['Cr', 'Li', 'O', 'P']"
mp-849544,Li4Fe3OF8,4,True,-0.7224175574123355,0.3815960962311584,1.0256937605468588,True,-0.3424756311416496,0.913474349463732,"['F', 'Fe', 'Li', 'O']"
mp-768705,Li3CoBO4,4,True,-0.1801488239296129,0.2232533965304565,0.3190758523399246,True,-0.3925047284899263,0.6360010179450267,"['B', 'Co', 'Li', 'O']"
mp-770589,Li3Al2FeO6,4,True,-0.7351313818751809,0.1026680181357862,0.7408392626715646,True,-0.4466718284353322,0.1719033772986625,"['Al', 'Fe', 'Li', 'O']"
mp-26579,LiCrPO4,4,False,-0.6260918477907946,-0.1504380071743146,1.167477767808771,True,-0.3161413419735269,0.5630584143749555,"['Cr', 'Li', 'O', 'P']"
mp-1176628,LiMnF4,3,True,-1.0376626160985625,0.3595259682609147,0.5530804030071506,True,-0.0836640601106029,-0.8734286417454441,"['F', 'Li', 'Mn']"
mp-1186148,NaLi5N2,3,False,1.8255499536554751,1.0205407127118162,-0.8682128617659177,False,-1.4964485409581496,-0.9666295957765512,"['Li', 'N', 'Na']"
mp-758648,LiCoCO4,4,True,0.3111849975451419,0.0431308872022694,-0.3141447951831909,False,-0.6879573594355413,-0.2384114396431757,"['C', 'Co', 'Li', 'O']"
mp-1279318,Li3FeO4,3,True,0.2435055026502184,0.3702588514826087,-0.7409864292706302,False,-0.3477367427100247,-0.8205767910930474,"['Fe', 'Li', 'O']"
mp-1174835,Li6Mn3CoO10,4,True,0.1485936882857683,0.19172495496993,-0.269456426132159,False,0.1190625656602975,-0.718901700932103,"['Co', 'Li', 'Mn', 'O']"
mp-1197196,Li2Mo15Se19,3,False,1.487102216730413,-3.451072525955869,-0.8682128617659177,False,1.5790155511631223,3.39680815650438,"['Li', 'Mo', 'Se']"
mp-758077,Li(Fe2O3)4,3,True,0.3402619698720347,-0.1544604547087801,-0.1371517698810709,False,0.5804614424104431,0.1027686661739405,"['Fe', 'Li', 'O']"
mp-755505,Li2NbOF5,4,False,-1.4150920565917746,0.2488050541640834,-0.8680774424657631,False,-0.1429788739562727,-0.9428770702468228,"['F', 'Li', 'Nb', 'O']"
mp-849540,Li2Mn3(BO3)3,4,True,-0.4948780652270753,-0.2280840337641375,-0.8682128617659177,False,-0.4178957021179357,-0.1485799313879569,"['B', 'Li', 'Mn', 'O']"
mp-1147747,Na2Li2Cu(IO)2,5,False,0.8399409632925539,1.0012305589752772,-0.8682128617659177,False,-0.1021328322428203,-0.692738584762756,"['Cu', 'I', 'Li', 'Na', 'O']"
mp-849277,Li2CuP3(HO5)2,5,False,-0.2530157700635106,0.1754958827883256,0.2394493038489945,True,-0.6936150273567914,-0.0635593520942642,"['Cu', 'H', 'Li', 'O', 'P']"
mp-766883,Li4Ti4Mn4VO18,5,True,-0.7547527111564178,-0.2889865297474668,-0.2932225133092984,False,-0.0634884005975809,0.8027265387609297,"['Li', 'Mn', 'O', 'Ti', 'V']"
mp-756959,Li3Fe3CuO8,4,True,0.4628549023551685,0.2135716506049818,-0.8682128617659177,False,0.5511866349823228,-0.8399057677912434,"['Cu', 'Fe', 'Li', 'O']"
mp-773045,Li2V3FeO8,4,True,-0.3588473562629283,-0.1956999284448894,-0.8682128617659177,False,0.1088965977182368,-0.8085941022852162,"['Fe', 'Li', 'O', 'V']"
mp-775216,LiVTeO5,4,False,-0.01349784011043,0.1252247493275072,0.8814044962320855,True,0.1674547366949992,0.0346415199991217,"['Li', 'O', 'Te', 'V']"
mp-2894145,LiMg6Mo,3,False,2.357285400125685,1.3430414763891765,-0.8682128617659177,False,-0.7938596070190611,-0.7729798918205496,"['Li', 'Mg', 'Mo']"
mp-1245529,LiSbN2,3,False,2.0286846063517547,0.4261384947883899,-0.8682128617659177,False,0.6658775383516635,-0.9214546148284478,"['Li', 'N', 'Sb']"
mp-1175580,Li9Mn2Co5O16,4,True,0.1535364466184496,0.2161077445015034,0.0322577746123889,True,0.2881642052455052,-0.4089709350512677,"['Co', 'Li', 'Mn', 'O']"
mp-752654,Li3(FeO3)2,3,True,0.3382423893121856,0.2469991978383,-0.8682128617659177,False,-0.1190651539322314,-0.9314294762774626,"['Fe', 'Li', 'O']"
mp-1177743,Li32Ti3Cr13O48,4,False,-0.4396541106740854,0.0694971920517114,-0.1035677834427192,False,-0.1531211544363307,1.2259667367451053,"['Cr', 'Li', 'O', 'Ti']"
mp-1244614,Li3Mn2(PO4)3,4,True,-0.5802560616863994,-0.0602659183546846,-0.1622720500597575,False,-0.5099530868445413,1.4296067696339674,"['Li', 'Mn', 'O', 'P']"
mp-1175286,Li7Mn4CoO12,4,True,-0.0490245954522276,0.1171652235402113,-0.8524365132979024,False,0.0900791209423303,-0.5972421309382717,"['Co', 'Li', 'Mn', 'O']"
mp-777589,Li2MnF4,3,True,-1.193092927147316,0.3687771568594428,1.9573108359607336,True,-0.5254859481742432,-0.3013342420195805,"['F', 'Li', 'Mn']"
mp-1174919,Li7Mn2(CoO4)3,4,True,0.0832823434741234,0.2011077427836805,-0.048655257230011,False,0.2347725372032252,-0.621697093106089,"['Co', 'Li', 'Mn', 'O']"
mp-697813,LiCr2(PO4)3,4,False,-0.4533312398350345,-0.1417469980107968,-0.8682128617659177,False,-0.5983290297799265,1.4202513814697686,"['Cr', 'Li', 'O', 'P']"