material_id,formula_pretty,n_elements,contains_transition_metal,formation_energy_per_atom,energy_per_atom,band_gap,is_semiconductor,density,volume,elements
mp-1176587,LiSiBiO4,4,False,-0.5454196176953359,0.1093044182429455,1.1675454774588487,True,0.8160111175844668,1.1391476278592358,"['Bi', 'Li', 'O', 'Si']"
mp-1177646,Li3Mn2P2(CO7)2,5,True,-0.3229476237683781,-0.0931615892378814,-0.4198395589538908,False,-0.7374096539288815,0.3576807347667663,"['C', 'Li', 'Mn', 'O', 'P']"
mp-1638910,Li7Mn5O12,3,True,-0.1709909790553852,0.0604745110177184,0.0199346182983163,True,0.055903634666231,0.0507500008064532,"['Li', 'Mn', 'O']"
mp-567389,Li2ZnGe,3,False,1.9098499407748188,1.338783631523975,-0.8682128617659177,False,0.3561614863269629,-1.0680413722358286,"['Ge', 'Li', 'Zn']"
mp-1026850,RbLiMg14,3,False,2.352101866160313,1.6927303343652595,-0.8682128617659177,False,-1.304094072886526,-0.0862452698164894,"['Li', 'Mg', 'Rb']"
mp-2659898,LiBH4,3,False,1.7085110471254588,0.9172914693166746,3.751955111260157,True,-2.083117858998131,-0.910051251531871,"['B', 'H', 'Li']"
mp-1018763,Li3DySb2,3,False,1.2066704449500874,0.95737817830026,-0.8682128617659177,False,1.213970965864221,-0.8703510933591513,"['Dy', 'Li', 'Sb']"
mp-761276,Li4Ni3O6F,4,True,0.3310686637857998,0.4535032669521202,-0.8682128617659177,False,0.430587606088597,-0.8902026502813548,"['F', 'Li', 'Ni', 'O']"
mp-778496,LiFe2(ClO)2,4,True,0.3950766097079657,0.298239387526538,0.3176539496883016,True,-0.3197346612398654,0.7095355345809085,"['Cl', 'Fe', 'Li', 'O']"
mp-1174060,Li5Mn(CoO4)2,4,True,0.1912015794454818,0.273412183956068,-0.8682128617659177,False,0.1014868310262181,-0.8258595372585986,"['Co', 'Li', 'Mn', 'O']"
mp-1222453,LiLa4CuO8,4,False,-1.2773715976487554,-0.1521988359334561,-0.8531813194487529,False,1.9529745617371517,-0.6959768667749341,"['Cu', 'La', 'Li', 'O']"
mp-1174886,Li7Mn2(CoO4)3,4,True,0.0861662915088455,0.2018683219062627,0.0261639061054299,True,0.2241734526893831,-0.6193066259120777,"['Co', 'Li', 'Mn', 'O']"
mp-1097151,Li2HgBi,3,False,2.8538839224725367,-5.879404713759313,-0.8682128617659177,False,-2.05717871679716,1.7677513887993463,"['Bi', 'Hg', 'Li']"
mp-1176151,Li9Mn2Co5O16,4,True,0.1662719860835176,0.2194664684851974,-0.6864124513083085,False,0.2855983421693925,-0.4082096546377752,"['Co', 'Li', 'Mn', 'O']"
mp-1173997,Li5Mn(CoO4)2,4,True,0.1598563928067786,0.265145566713387,-0.8682128617659177,False,0.1004802305539543,-0.8257005043412552,"['Co', 'Li', 'Mn', 'O']"
mp-705429,Li6Co5(P2O7)4,4,True,-0.4757691561141671,-0.0003388489086859,0.7335943301132912,True,-0.3679404896179855,1.8545539436119096,"['Co', 'Li', 'O', 'P']"
mp-26855,Li2Sn(PO3)4,4,False,-0.6194035512961182,0.0183517788865869,1.8609600039007037,True,-0.3394928844975231,0.0881256569899786,"['Li', 'O', 'P', 'Sn']"
mp-754884,LiFe2O2F3,4,True,-0.3798710875796331,0.1878018962177053,0.3517796133272713,True,-0.1431259223137607,-0.6751062095708859,"['F', 'Fe', 'Li', 'O']"
mp-772612,Li2TiCr3O8,4,False,-0.6253171818632204,-0.2894546548126208,-0.8453270000397836,False,0.1866599890304992,-0.4152793866453595,"['Cr', 'Li', 'O', 'Ti']"
mp-766423,Li8BiS6,3,False,0.806944058918446,0.9006320301541563,-0.8572438984533922,False,-0.7927540823315267,0.4698430689813219,"['Bi', 'Li', 'S']"
mp-754235,LiMnP2HO7,5,True,-0.526113901558278,-0.0491092624694442,1.886283413029623,True,-0.5532606361447338,0.3156880937335942,"['H', 'Li', 'Mn', 'O', 'P']"
mp-11644,Li2Ca,2,False,2.155122762532681,0.964742324937677,-0.8682128617659177,False,-1.8037220090146016,-0.7473353081279489,"['Ca', 'Li']"
mp-1398000,Li3VO3F2,4,False,0.7009106082697817,0.644182641455076,-0.8477645474425665,False,-0.8110362219755101,-0.9401037203039316,"['F', 'Li', 'O', 'V']"
mp-757988,Li4FeSi2O7,4,True,-0.787643084711645,0.0545454965751526,1.9138412406110932,True,-0.6287719799353204,0.4800824142656337,"['Fe', 'Li', 'O', 'Si']"
mp-767589,LiVF5,3,False,-1.1513063523582798,0.3828307391215462,0.4820529800760398,True,-0.6278832120062688,-0.1953574625739664,"['F', 'Li', 'V']"
mp-776017,LiFeF3,3,True,-0.8753595870309494,0.3724324185991806,1.4479311384290396,True,-0.5189839735813974,0.3065423808057981,"['F', 'Fe', 'Li']"
mp-1235260,LiV6O11F,4,False,-0.5611797241873476,-0.3310991618796219,-0.2928839650589118,False,0.0731640219369536,-0.6075586461428863,"['F', 'Li', 'O', 'V']"
mp-758392,LiCoCO4,4,True,0.3102915461268176,0.0428952586515337,-0.2173877052226976,False,-0.7797699688244956,-0.1853342859691346,"['C', 'Co', 'Li', 'O']"
mp-759585,Li3Fe8(BO3)8,4,True,-0.3038942443228411,-0.1990995835265645,0.2831897377989446,True,-0.3519443478914206,0.1568991235989617,"['B', 'Fe', 'Li', 'O']"
mp-1235617,Ba2Li(CO3)2,4,False,-0.3663578063289424,0.0206241952038541,-0.6883083215104735,False,0.1251528822254526,-0.7490553835373375,"['Ba', 'C', 'Li', 'O']"
mp-766375,Li6MnNi3(PO4)6,5,True,-0.3671055785509459,0.0695412223662853,-0.8682128617659177,False,-0.453811538659976,0.0768781647569393,"['Li', 'Mn', 'Ni', 'O', 'P']"
mp-850062,LiNiO2,3,True,0.5336818922885926,0.4039416374302214,-0.8682128617659177,False,0.7572315045873272,-0.7586921256962659,"['Li', 'Ni', 'O']"
mp-1174157,Li3Mn2O5,3,True,0.0386898731985185,0.1333105432162418,-0.8682128617659177,False,-0.068190519687137,-0.684318864576328,"['Li', 'Mn', 'O']"
mp-1176787,LiCoP2O7,4,True,-0.3571257237959589,0.0067831573592772,-0.192876811894707,False,-0.7343767633591646,-0.3711445229404381,"['Co', 'Li', 'O', 'P']"
mp-759871,LiBi(PO3)4,4,False,-0.5723193025671284,-0.0119249625791754,2.0621253742804284,True,-0.1287017812878435,0.1952863702052853,"['Bi', 'Li', 'O', 'P']"
mp-756955,Li3Fe3O8,3,True,0.4507007958961768,0.1919465552575118,-0.8682128617659177,False,-0.1267472935375907,-0.3861521855910195,"['Fe', 'Li', 'O']"
mp-757765,Li3NbP3O11,4,False,-0.7661382801165239,-0.0576515627641027,-0.3906566997705649,False,-0.3307782030170756,-0.1110953888895238,"['Li', 'Nb', 'O', 'P']"
mp-850217,Li4V2Si4O13,4,False,-0.9969988216144756,-0.1349086038416419,0.6203837951840082,True,-0.4778553315195133,1.6045681197702717,"['Li', 'O', 'Si', 'V']"
mp-1284801,Li3V4O8,3,False,-0.5410835886313395,-0.1832388295182728,-0.1204951959620504,False,0.0474626647022612,-0.3532812791513716,"['Li', 'O', 'V']"
mp-756511,LiVBO4,4,False,-0.6897689908769536,-0.1960297424280665,0.8674563083161572,True,-0.2982642618769102,-0.4679784056773504,"['B', 'Li', 'O', 'V']"
mp-779455,Li7Ti5O12,3,False,-1.0917560598461584,-0.1057993706386756,-0.8682128617659177,False,-0.0271728129248302,-0.617827337372727,"['Li', 'O', 'Ti']"
mp-757918,LiV4(PO4)3,4,False,-0.59151196035207,-0.2691485104890066,0.9428171488522168,True,-0.1789529007351181,1.491257803991939,"['Li', 'O', 'P', 'V']"
mp-880027,LiMn3O6,3,True,1.0067596508920111,0.0899943849475943,-0.8682128617659177,False,0.1906870486383919,0.0344880020092234,"['Li', 'Mn', 'O']"
mp-1228731,Ba2Li3La3(MoO4)8,5,False,-0.6342954552195217,-0.257419968157745,0.8306222586740938,True,0.6578973523243395,0.7793687523654272,"['Ba', 'La', 'Li', 'Mo', 'O']"
mp-1111067,Li3VF6,3,False,-1.0375946908424023,0.5022033761016762,-0.8682128617659177,False,-0.752536388007508,-0.8989010025641311,"['F', 'Li', 'V']"
mp-1177425,Li4Fe3Co3(TeO8)2,5,True,0.2772621691100863,0.1621748278684818,-0.8682128617659177,False,0.7320148715615596,-0.3638685602434596,"['Co', 'Fe', 'Li', 'O', 'Te']"
mp-1176883,Li7Fe5O16,3,True,0.5249383326749884,0.2795139231321937,-0.8682128617659177,False,-0.2093150764233046,-0.4237816123060897,"['Fe', 'Li', 'O']"
mp-1174869,Li7Mn2(CoO4)3,4,True,0.0920617795255938,0.2034231297769256,-0.5523473441552108,False,0.2230720169191354,3.494963361007855e-05,"['Co', 'Li', 'Mn', 'O']"
mp-1177476,Li3V5O12,3,False,-0.4910892680730751,-0.1941418103286766,-0.313941666232959,False,0.0975339317805707,-0.6627552496395984,"['Li', 'O', 'V']"
mp-1185206,Li3Pm,2,False,2.391704841568341,-0.4926420957297917,-0.8682128617659177,False,-0.6474837654590624,-0.6666364790277961,"['Li', 'Pm']"
mp-770707,Li2AlFeO4,4,True,-0.5664312473424916,0.0900429391890613,1.259698311214084,True,-0.4880018042437969,-0.217805305018409,"['Al', 'Fe', 'Li', 'O']"
mp-1035470,RbLiMg14O15,4,False,-0.7970281622924053,0.3931997314735672,1.304589809215348,True,-0.1142528804320066,-0.337063593326275,"['Li', 'Mg', 'O', 'Rb']"
mp-779759,LiV4OF11,4,False,-1.2368664513294303,0.116057785996431,-0.8682128617659177,False,-0.3219108625282643,0.0399418943090145,"['F', 'Li', 'O', 'V']"
mp-770750,Li3Al(FeO3)2,4,True,-0.3168332582224408,0.0987529254099512,0.591133226350605,True,-0.2657183788839844,0.2232676760768067,"['Al', 'Fe', 'Li', 'O']"
mp-772964,Li2Cr3SnO8,4,False,-0.3034858182022937,-0.1240435429179272,-0.7294757887574854,False,0.5024612299636431,0.5368754197496997,"['Cr', 'Li', 'O', 'Sn']"
mp-753999,LiCr2(PO4)2,4,False,-0.553281967242163,-0.2058671223258727,-0.8682128617659177,False,-0.7896453288040628,-0.1154386869995231,"['Cr', 'Li', 'O', 'P']"
mp-1197831,LiBrO3,3,False,1.5960268525899377,0.8925237580597751,-0.8682128617659177,False,-0.5779505224143809,0.5538778685580245,"['Br', 'Li', 'O']"
mp-800105,Li3Fe2P4HO14,5,True,0.9980210984327484,0.3875481048770761,-0.8682128617659177,False,-0.6422293818028024,-0.4108930100335068,"['Fe', 'H', 'Li', 'O', 'P']"
mp-770638,Li2CoH12(SO7)2,5,True,0.4780203372793972,0.4551740341084759,1.3859090989582123,True,-1.1041881610331017,0.4654504105014,"['Co', 'H', 'Li', 'O', 'S']"
mp-758336,Li3VP3O11,4,False,-0.7109893434141428,-0.0267074493799474,0.0955662974346844,True,-0.7049862061803811,-0.0265669627807881,"['Li', 'O', 'P', 'V']"
mp-31441,Li2GaIr,3,False,1.6472068726302251,-3.001087286107594,-0.8682128617659177,False,3.3331046082371096,-1.0866901622020289,"['Ga', 'Ir', 'Li']"
mp-1237474,Li3SbF6,3,False,-0.9303421865966542,0.6742542837785473,1.612668717067164,True,-0.3019591162803957,-0.8652226447006678,"['F', 'Li', 'Sb']"
mp-1174363,Li6Mn3CoO10,4,True,-0.034773387120167,0.1433658418224255,-0.6640005571327142,False,0.063563516172958,-0.7077002305180715,"['Co', 'Li', 'Mn', 'O']"
mp-782720,LiTiV3O8,4,False,-0.7274981972792909,-0.3636350713109983,-0.22720560448391,False,-0.1175368038443279,-0.7879364127940103,"['Li', 'O', 'Ti', 'V']"
mp-1222344,LiTaGeO5,4,False,-0.8624674577633744,-0.253275779666527,1.7025194227197695,True,1.1310738213695513,-0.6379427907085333,"['Ge', 'Li', 'O', 'Ta']"
mp-554752,RbLi7(SiO4)2,4,False,-0.7267095679588945,0.302934859821116,2.4310752575517567,True,-0.7226152256160379,-0.0952689919288811,"['Li', 'O', 'Rb', 'Si']"
mp-31837,LiFeP2O7,4,True,-0.5588480416407006,-0.0816724441701129,0.7760482807117721,True,-0.3252548926586566,-0.5426415255884127,"['Fe', 'Li', 'O', 'P']"
mp-1174329,Li5Mn2CoO8,4,True,-0.0636933873587869,0.1694020691750901,-0.018253624345294,False,0.0925183494472225,-0.8293646915974956,"['Co', 'Li', 'Mn', 'O']"
mp-759417,Li3Fe2(PO3)7,4,True,-0.570188320063251,-0.0578065416654366,1.857642231046916,True,-0.6952687752862284,1.1860355237189206,"['Fe', 'Li', 'O', 'P']"
mp-1174072,Li3MnCoO5,4,True,0.0209206377601899,0.1874835900528832,0.2642987454273712,True,0.1793696255091254,-0.7257820036506561,"['Co', 'Li', 'Mn', 'O']"
mp-1018770,Li3PrBi2,3,False,1.2494999304675678,-5.557977862070334,-0.8682128617659177,False,1.952745451436424,-0.8213515664177843,"['Bi', 'Li', 'Pr']"
mp-771037,Li3MnBAsO7,5,True,-0.2916789373889028,0.1031803830913992,-0.1343079645778234,False,-0.4436521210705585,0.4609858967233779,"['As', 'B', 'Li', 'Mn', 'O']"
mp-866194,Li2MgCd,3,False,2.0044934563470456,1.602556415937072,-0.8682128617659177,False,-0.1995014316361455,-1.0289671264352025,"['Cd', 'Li', 'Mg']"
mp-695366,Na3LiMg4(Si2O5)6,5,False,-0.5124433114117524,0.0921496202707506,-0.5085392005551834,False,-0.8344927478987911,2.555471562382605,"['Li', 'Mg', 'Na', 'O', 'Si']"
mp-760262,Li2V2F7,3,False,-1.2511274724309214,0.2755072700520935,-0.6892562566115554,False,-0.5841990152346009,0.4201495336875495,"['F', 'Li', 'V']"
mp-570080,Li2TeSe3,3,False,1.2164669028092856,1.0157794365028927,-0.1024167193914047,False,0.4634113672168712,0.3952273625150831,"['Li', 'Se', 'Te']"
mp-754656,LiMnO2,3,True,-0.2045291917501403,-0.0360566079430077,-0.0892810472764049,False,0.3268279833624653,-1.1319527533986995,"['Li', 'Mn', 'O']"
mp-25812,LiV2P5O16,4,False,-0.781054851166341,-0.1943931940475106,-0.8458686772404022,False,-0.743479394925034,0.6503311310043318,"['Li', 'O', 'P', 'V']"
mp-1575892,Li2CoCSO7,5,True,-0.0065480159303239,0.1115805441216704,1.0649653575917055,True,-0.7257708760651372,0.4088380502891305,"['C', 'Co', 'Li', 'O', 'S']"
mp-1111287,Li3MoF6,3,False,-0.7853214959617066,-0.1767840902622753,1.1056588572881765,True,-0.5265413018835613,-0.8647584689157553,"['F', 'Li', 'Mo']"
mp-13985,Li2PdF6,3,False,-0.342918351134413,-0.0504573740294779,0.4092651062429184,True,0.2378455432092499,-0.6909060219374868,"['F', 'Li', 'Pd']"
mp-28612,Na(LiSi2)3,3,False,2.0803612452268245,0.9378286938459668,-0.7883154746746783,False,-1.1741402757396255,0.8028121453403407,"['Li', 'Na', 'Si']"
mp-781603,Li4Mn3Fe(BO3)4,5,True,-0.5382365851252315,-0.1710166244116101,1.1854885347293391,True,-0.3645607993771059,-0.5146337867857282,"['B', 'Fe', 'Li', 'Mn', 'O']"
mp-1180504,LiH2IO,4,False,0.6928564218420383,0.8411013717140133,1.6253981312817012,True,-0.3893135249827703,-0.7785015561534174,"['H', 'I', 'Li', 'O']"
mp-1175650,Li9Mn2Co5O16,4,True,0.1553237592213919,0.216579109670001,-0.4035215332852561,False,0.3030199919487559,-0.4133512761961084,"['Co', 'Li', 'Mn', 'O']"
mp-1185435,LiYbAu2,3,False,1.2992839447910352,-8.279991685362928,-0.8682128617659177,False,5.895043168332216,-1.0190721709896509,"['Au', 'Li', 'Yb']"
mp-1177982,Li2Fe(BO3)2,4,True,-0.3742508177383382,-0.0195049123883094,-0.8682128617659177,False,-0.4627692213701115,-0.6507427157932517,"['B', 'Fe', 'Li', 'O']"
mp-777835,Li6MnV3(PO4)6,5,True,-0.7823702064758082,-0.1118694266888043,-0.5159195524136108,False,-0.5710674199723813,1.474038630117631,"['Li', 'Mn', 'O', 'P', 'V']"
mp-758866,Na2Li4Ni2C4SO16,6,True,-0.0053621200472617,0.1156191721405275,1.5681834769663638,True,-0.6461027523188239,0.5776090062121211,"['C', 'Li', 'Na', 'Ni', 'O', 'S']"
mp-777796,Li3Cr3(PO4)4,4,False,-0.6381200823179245,-0.1418206106285646,0.1067383896974432,True,-0.6097520105284816,1.5826799112024428,"['Cr', 'Li', 'O', 'P']"
mp-30818,Li2AlPt,3,False,1.3417794202080735,-2.676713435100417,-0.8682128617659177,False,2.3343784701488244,-1.0818700805002417,"['Al', 'Li', 'Pt']"
mp-1185282,Li3Tb,2,False,2.4036144988144628,-0.6117854572827301,-0.8682128617659177,False,-0.399081492488015,-0.6915735766099358,"['Li', 'Tb']"
mp-757969,LiCoPO4,4,True,-0.3843769771500144,0.0177469079015277,1.2111504921086431,True,-0.3380141802170962,1.6138870322041874,"['Co', 'Li', 'O', 'P']"
mp-6318,KLiSO4,4,False,-0.3614200995536592,0.3255200097722975,2.7325186196959947,True,-0.98926093442618,-0.6382573516905452,"['K', 'Li', 'O', 'S']"
mp-849622,LiFe4(BO3)4,4,True,-0.2836940908198153,-0.2200541146592406,0.2783146429933775,True,-0.3808841097544154,0.1654062692900717,"['B', 'Fe', 'Li', 'O']"
mp-555939,Li2Te2O5,3,False,0.1372625510800029,0.4516236111816095,1.2673495016728211,True,0.531924919239202,1.707873679782505,"['Li', 'O', 'Te']"
mp-1177498,Li3V2P4(HO8)2,5,False,-0.61049275924157,-0.0355284059200307,-0.3039206380215153,False,-0.5616419201743129,0.4243324904304897,"['H', 'Li', 'O', 'P', 'V']"
mp-28463,LiNb3Cl8,3,False,0.4976838375261826,-1.371910106635942,-0.2705397805333955,False,-0.3330865570572544,2.1189890226300125,"['Cl', 'Li', 'Nb']"
mp-26348,Li2Mo(PO4)2,4,False,-0.6072512216025733,-0.0738766313280035,0.1578591755058215,True,-0.2309499524739146,-0.8160252621335471,"['Li', 'Mo', 'O', 'P']"
mp-859087,LiMnPO4,4,True,-0.6542922923927611,-0.1375221514530706,1.2861727843943165,True,-0.347171942224011,-0.307156892724482,"['Li', 'Mn', 'O', 'P']"
mp-755092,Li3Mn2VO6,4,True,-0.306415645668266,-0.061038363474192,-0.402302759583865,False,0.1455657754185238,-0.5671228278622231,"['Li', 'Mn', 'O', 'V']"
mp-778261,Li4TiMn3Cr2(PO4)6,6,True,-0.6928605056542353,-0.1931229022121982,-0.0950363675329767,False,-0.4280176081825122,0.1712196420652313,"['Cr', 'Li', 'Mn', 'O', 'P', 'Ti']"
mp-1302453,Li2TiCrO4,4,False,-0.7546122865201736,-0.1530033060324113,-0.6607504939290029,False,0.0727251114145822,-0.3547296336052665,"['Cr', 'Li', 'O', 'Ti']"
mp-23694,LiBH,3,False,1.877374208656797,0.8748788073733956,-0.5497066678021952,False,-1.8032206275455347,-0.8971151471721786,"['B', 'H', 'Li']"
mp-1176216,Li9Mn2Co5O16,4,True,0.2176465370172157,0.2330153987716457,-0.8682128617659177,False,0.2133403810448284,-0.3861818131624346,"['Co', 'Li', 'Mn', 'O']"
mp-773072,Ba8LiNb7O24,4,False,-1.3199921319635772,-0.3088543556729424,-0.8682128617659177,False,1.55825411821939,0.4496536208150485,"['Ba', 'Li', 'Nb', 'O']"
mp-756353,LiFe3(OF3)2,4,True,-0.440760348117536,0.245045681254545,0.7197815614975175,True,-0.2613480318410052,-0.7807722541065053,"['F', 'Fe', 'Li', 'O']"
mp-1222320,LiInSe2,3,False,1.2127138468954153,-2.0285558896667184,-0.8682128617659177,False,1.0126745375681818,-0.9833835654154356,"['In', 'Li', 'Se']"
mp-756884,Li3Mn2Cr2O8,4,True,-0.2452248368256433,-0.1302522232765621,-0.7673254831507078,False,0.207208223735447,-0.8098034401283525,"['Cr', 'Li', 'Mn', 'O']"
mp-1098000,LiEu3O4,3,False,-1.166525235261434,-0.6753460759471095,-0.8682128617659177,False,2.6105583276801485,0.0823345439758167,"['Eu', 'Li', 'O']"
mp-504122,Li2FeP2O7,4,True,-0.6187009974893384,-0.0208595783880013,2.034635256349034,True,-0.6281496049886602,0.4242167610953839,"['Fe', 'Li', 'O', 'P']"
mp-1177503,Li4Cr3FeO8,4,True,-0.3505123323757771,-0.088721201553627,-0.8520979650475151,False,0.2524048064151121,-0.8111146526549704,"['Cr', 'Fe', 'Li', 'O']"
mp-759650,Li3Bi3(PO4)4,4,False,-0.4909626369981795,0.0899264246752787,1.270464145576378,True,0.5805994358264428,0.8958843735838535,"['Bi', 'Li', 'O', 'P']"
mp-849806,Li7Mn4(P2O7)4,4,True,-0.7236280175754874,-0.0835466560708978,-0.7673254831507078,False,-0.5399784408668962,1.9032754428034464,"['Li', 'Mn', 'O', 'P']"
mp-867649,LiTi(Si2O5)2,4,False,-1.2626952936296412,-0.2628596656288127,-0.5021744934479144,False,-0.7636970990594204,-0.0355680423944547,"['Li', 'O', 'Si', 'Ti']"
mp-1177467,Li4FeCo2Ni3(PO4)6,6,True,-0.2598171740740027,0.0270620203673685,-0.8682128617659177,False,-0.1950121733127586,0.0752233926655738,"['Co', 'Fe', 'Li', 'Ni', 'O', 'P']"
mp-753935,LiNiSnO4,4,True,0.3138884295548087,0.3162664896305984,-0.597712809707016,False,0.9584058953639244,-0.7786280418512774,"['Li', 'Ni', 'O', 'Sn']"
mp-771896,Li5Mn8Fe11O32,4,True,0.1241970910821018,-0.160805537917856,-0.8682128617659177,False,0.3869787059340314,0.5347481342544681,"['Fe', 'Li', 'Mn', 'O']"
mp-5515,Li7MnN4,3,True,1.424390451835689,0.5633445708675534,-0.353754940478425,False,-0.835857544484709,1.2090761269837196,"['Li', 'Mn', 'N']"
mp-757356,Li2CrP2O7,4,False,-0.6888414800087728,-0.0679619705560267,-0.8458686772404015,False,-0.6364855248642846,0.4052418910329298,"['Cr', 'Li', 'O', 'P']"
mp-1197982,K2LiIn(MoO4)3,5,False,-0.1835499658369561,-0.0190817830014744,1.6878941383030688,True,-0.2439022189522912,0.6872759841930134,"['In', 'K', 'Li', 'Mo', 'O']"
mp-775324,Li11Co12(PO4)12,4,True,-0.388482026446827,0.0062333602351487,-0.8682128617659177,False,-0.0576968842686701,1.278675578965506,"['Co', 'Li', 'O', 'P']"
mp-1174361,Li5Mn2CoO8,4,True,-0.0371999145647447,0.1763891514835203,-0.0475719028287738,False,0.0832153577733475,-0.4176461534445799,"['Co', 'Li', 'Mn', 'O']"
mp-1110936,K2LiYI6,4,False,0.4388338260746139,1.0792748703789596,1.1428991648307036,True,-0.0860978956858436,0.0004139267862963,"['I', 'K', 'Li', 'Y']"
mp-1223542,KLi2(RuO2)6,4,False,0.5044884846986036,0.0142147068341514,-0.8682128617659177,False,1.7182444805952506,-0.5920409083740298,"['K', 'Li', 'O', 'Ru']"
mp-1045536,LiCr2O4,3,False,-0.2410882552830934,-0.2245475933600087,-0.3765053829044046,False,0.1094922435634744,-0.8095311331200857,"['Cr', 'Li', 'O']"
mp-1173949,Li2MnCoO4,4,True,0.0779172776324117,0.1120066839543675,-0.4658144113563924,False,0.3373877855803196,-0.8059338621453578,"['Co', 'Li', 'Mn', 'O']"