material_id,formula_pretty,n_elements,contains_transition_metal,formation_energy_per_atom,energy_per_atom,band_gap,is_semiconductor,density,volume,elements
mp-2897115,LiZr5TlF22,4,False,-2.0681169100092385,-1.3887542763966418,2.933819409375873,True,0.7192281441348143,0.9190402538140976,"['F', 'Li', 'Tl', 'Zr']"
mp-757346,LiCrPO4,4,False,-0.5511537394967809,-0.130674696612549,0.8057728170957168,True,-0.6599102795324722,-0.1701219993796809,"['Cr', 'Li', 'O', 'P']"
mp-25449,LiCuPO4,4,False,-0.2307223336235194,0.1840369716246666,-0.8682128617659177,False,0.0306377774930895,-0.4021576857345721,"['Cu', 'Li', 'O', 'P']"
mp-31972,Li3Mn(PO4)2,4,True,-0.6795520689783789,0.006135221370688,-0.09848955968692,False,-0.450242635994148,0.4178992077974282,"['Li', 'Mn', 'O', 'P']"
mp-761891,Li3Ti4O8,3,False,-1.191755148382894,-0.2628886319517626,-0.8682128617659177,False,0.1358670781264841,-0.8254190871930172,"['Li', 'O', 'Ti']"
mp-756972,Li3Ti2CrO6,4,False,-0.8665730085173038,-0.1612825958641963,-0.8682128617659177,False,0.1193636894436819,0.0533884386588752,"['Cr', 'Li', 'O', 'Ti']"
mp-764798,Li5Fe8(BO3)8,4,True,-0.3431326182356368,-0.1603883379430166,0.1050456484455101,True,-0.3423023015986174,0.1712443308761657,"['B', 'Fe', 'Li', 'O']"
mp-1443175,LiV3O6,3,False,2.897260436196979,0.5953721729039847,-0.8682128617659177,False,0.2419285728494026,-0.9398975240294276,"['Li', 'O', 'V']"
mp-7779,Li2NdAs2,3,False,1.0047211001102092,-1.887325555670263,-0.8682128617659177,False,0.5462357648558153,-0.9147880397134804,"['As', 'Li', 'Nd']"
mp-765701,Li4V3FeO8,4,True,-0.3928941511737965,-0.0689356785614116,0.1567081114545064,True,0.1504159286228091,-0.7985548726129236,"['Fe', 'Li', 'O', 'V']"
mp-754662,LiFeF4,3,True,-0.8443108160869829,0.4439817403441848,1.5767826025261829,True,-0.2890357887453014,-0.8370684189725325,"['F', 'Fe', 'Li']"
mp-1311345,Li3(NiO2)5,3,True,0.80087292242891,0.3942196619120962,-0.6107130625218617,False,0.5706666971834984,-0.2500670763761565,"['Li', 'Ni', 'O']"
mp-760025,Li2MnCu3O8,4,True,0.6856088414872424,0.3753325349865026,-0.8682128617659177,False,0.4910653879921159,0.419056633038134,"['Cu', 'Li', 'Mn', 'O']"
mp-1222547,Li4VFe3(PO4)4,5,True,-0.5975907138730038,-0.1002467446884499,0.977958457242346,True,-0.2220839313509858,-0.3598665521070567,"['Fe', 'Li', 'O', 'P', 'V']"
mp-754360,Li3FeO4,3,True,0.2357453212949709,0.3682122709426029,-0.8682128617659177,False,-0.291403602512733,-1.0346665058763909,"['Fe', 'Li', 'O']"
mp-865631,LiNiO2,3,True,0.5237787766786215,0.401329904177481,-0.8682128617659177,False,0.7585889702796618,-1.0464460697377904,"['Li', 'Ni', 'O']"
mp-755545,Li6Fe(O2F)2,4,True,-0.2862947182815288,0.4914099075206395,-0.1640325009617678,False,-0.7921228899735808,-0.4927006156460506,"['F', 'Fe', 'Li', 'O']"
mp-555874,LiAsS2,3,False,1.230728281254011,0.7857415343160843,-0.1461571533413548,False,-0.4687451118851064,-0.779060448833199,"['As', 'Li', 'S']"
mp-1236109,Sr4LiMn2Cu3(SO)4,6,True,0.2285328125167458,0.379670747068276,-0.1867829433877481,False,0.5571934567238244,-0.3486490377228963,"['Cu', 'Li', 'Mn', 'O', 'S', 'Sr']"
mp-554656,Li5VP2(O4F)2,5,False,-0.9422382180276544,0.1156315055310432,0.8027258828422371,True,-0.6352217262640285,0.9092691678624812,"['F', 'Li', 'O', 'P', 'V']"
mp-1018779,Li3PrSb2,3,False,1.0702585971395395,-2.433359455682999,-0.8682128617659177,False,0.7981845753413553,-0.8450568185203731,"['Li', 'Pr', 'Sb']"
mp-753228,LiMn3O6,3,True,0.0134021797855526,-0.1719822334546491,-0.245284081054555,False,0.1068521149425196,-0.9097937456746256,"['Li', 'Mn', 'O']"
mp-26173,LiBi3(PO5)2,4,False,-0.3643071040038735,0.1027461267749749,1.494718506632469,True,1.6723635534797572,-0.5815523113277646,"['Bi', 'Li', 'O', 'P']"
mp-754500,LiSn2P4H3O16,5,False,-0.3303848879129973,0.1019583314174321,1.061783004038071,True,-0.2063399280594073,-0.3642771607487059,"['H', 'Li', 'O', 'P', 'Sn']"
mp-767753,Li2Fe2Si8O19,4,True,-1.002831430463491,-0.2061443387909887,1.5071093725966185,True,-0.653823620960582,-0.1068620971880914,"['Fe', 'Li', 'O', 'Si']"
mp-860885,LiNi(PO3)3,4,True,-0.4768228382530087,-0.0059666644437153,1.5334484264766972,True,-0.5305941327928334,0.7241340633076562,"['Li', 'Ni', 'O', 'P']"
mp-1175320,Li7Mn4CoO12,4,True,-0.0506725383843667,0.1167306141178839,-0.8682128617659177,False,0.1331969694687955,-0.6077006123088633,"['Co', 'Li', 'Mn', 'O']"
mp-1344597,Li2VSi7O16,4,False,4.7369447811777015,1.3367663736207196,-0.8682128617659177,False,-0.8209542526134429,-0.2548902142706592,"['Li', 'O', 'Si', 'V']"
mp-1638967,Li2Co(CO3)2,4,True,0.0437712786306459,-0.0078275330507077,1.0378137879106994,True,-0.7347641110313928,0.1564412407906598,"['C', 'Co', 'Li', 'O']"
mp-759624,Li3Bi(PO4)2,4,False,-0.6128276545213078,0.1329932473194383,1.8006307056818107,True,0.3951994491376234,0.6164394371877415,"['Bi', 'Li', 'O', 'P']"
mp-689967,LiMn(PO3)4,4,True,-0.5605137053791834,-0.0937921908759121,0.2868460589031201,True,-0.6676216650897223,-0.5800391073629217,"['Li', 'Mn', 'O', 'P']"
mp-865184,LiScPd2,3,False,1.3809755167033368,-2.4279383065920643,-0.8682128617659177,False,2.145790249674832,-1.055697502695503,"['Li', 'Pd', 'Sc']"
mp-1318775,Li3CrCo3O8,4,True,0.2937492043644525,0.1391072805828132,-0.8682128617659177,False,0.3768127046821203,-0.3986176205735527,"['Co', 'Cr', 'Li', 'O']"
mp-1100573,Li9Mn2Co5O16,4,True,0.2162736065818684,0.232653317966683,-0.8682128617659177,False,0.2693622640711252,-0.4033598830626271,"['Co', 'Li', 'Mn', 'O']"
mp-1174299,Li4Mn3O7,3,True,-0.1648698471506976,0.0495622364033572,-0.0569835441895222,False,0.0905837281022547,-0.4864496442260822,"['Li', 'Mn', 'O']"
mp-758776,Li3V3P8O29,4,False,-0.5947352407292046,-0.101174311395836,-0.4698092807109544,False,-0.830432005929739,2.146047815098474,"['Li', 'O', 'P', 'V']"
mp-775102,Li7Fe3Co(PO4)6,5,True,-0.5133994603958232,0.0081722965864022,-0.8682128617659177,False,-0.5753868495602253,0.1635219317574637,"['Co', 'Fe', 'Li', 'O', 'P']"
mp-1077469,Li3GdBi2,3,False,1.2959214290841472,-6.222410107425927,-0.8682128617659177,False,2.2792871333523164,-0.8388259642124181,"['Bi', 'Gd', 'Li']"
mp-1193296,LiTi2O4,3,False,-1.371167776972268,-0.3768815659672057,-0.8682128617659177,False,0.1504264252305138,-0.4339529993005309,"['Li', 'O', 'Ti']"
mp-1177231,Li4VCr2Ni3(PO4)6,6,True,-0.4622195585089319,-0.067323415639879,-0.8583949625047067,False,-0.2644417620242018,0.0890101621019721,"['Cr', 'Li', 'Ni', 'O', 'P', 'V']"
mp-26829,LiCr(PO3)4,4,False,-0.6929946946921329,-0.1366462961039338,1.4855099942219532,True,-0.9005152025800335,0.256899756274247,"['Cr', 'Li', 'O', 'P']"
mp-1235093,Ba6LiNb2Ir(ClO6)2,6,False,-0.9545029716328224,0.0111441936451397,0.1497340174965428,True,0.8761898320088528,0.1566278746768266,"['Ba', 'Cl', 'Ir', 'Li', 'Nb', 'O']"
mp-752982,Li2Mn2OF6,4,True,-0.8527583968986915,0.296417096064494,0.0246065841536515,True,-0.5574547183250597,-0.4039437644284759,"['F', 'Li', 'Mn', 'O']"
mp-865735,Li2YbGe,3,False,1.8156772737677696,-1.9846063340488485,-0.8682128617659177,False,1.9492430576498845,-1.0513777724856423,"['Ge', 'Li', 'Yb']"
mp-777385,Li5Mn8(BO3)8,4,True,-0.5139020876523792,-0.2411194006952554,-0.5055599759517811,False,-0.4111797339646295,0.2064212569650025,"['B', 'Li', 'Mn', 'O']"
mp-1174483,Li7Mn2(CoO4)3,4,True,0.3328731058157643,0.2669319257234527,-0.8682128617659177,False,0.2078209878132952,-0.6155819836755424,"['Co', 'Li', 'Mn', 'O']"
mp-753209,LiAgF4,3,False,0.1776497311332574,-0.1672093900041089,-0.8682128617659177,False,0.3132177565556515,-1.0212684386950777,"['Ag', 'F', 'Li']"
mp-1176613,LiV2F9,3,False,-1.148061928364179,0.3340685396854922,0.3258468173476576,True,-0.7156431669382068,0.7638916600488904,"['F', 'Li', 'V']"
mp-26601,Li3Mn2(PO4)3,4,True,-0.6105983373332071,-0.0682680394438083,-0.8682128617659177,False,-0.5727728192139329,0.1390031378736459,"['Li', 'Mn', 'O', 'P']"
mp-770832,Li2BSeO4,4,False,-0.162081358380192,0.2706797975047258,0.7314276213108168,True,-0.6831180588018217,-0.0599739734214979,"['B', 'Li', 'O', 'Se']"
mp-569115,Li2ZnGe,3,False,1.7980674374058176,1.3093034060452964,-0.8682128617659177,False,0.1468689816894196,-0.5040994261501809,"['Ge', 'Li', 'Zn']"
mp-676117,Li2CuGe,3,False,1.8291198576933396,1.111526968241256,-0.8682128617659177,False,0.6577941143445145,-0.9341118520354038,"['Cu', 'Ge', 'Li']"
mp-1100424,LiMgSb,3,False,1.6926928473239229,1.2435104464926576,-0.1011979456900129,False,-0.2063613598816095,-1.0249892697092968,"['Li', 'Mg', 'Sb']"
mp-674219,LiCr3O8,3,False,0.0723945351625039,-0.1456034971425708,0.4371614820747752,True,-0.1715845524704868,-0.4396073813529455,"['Cr', 'Li', 'O']"
mp-772558,NaLi2MnPCO7,6,True,-0.4575155574958286,-0.0014289207461978,1.708884129827039,True,-0.6511988531915341,0.4663876532692941,"['C', 'Li', 'Mn', 'Na', 'O', 'P']"
mp-26869,Li3Cr2(PO4)3,4,False,-0.7215851031782585,-0.1117855868367156,0.9177645783236076,True,-0.3340135970453565,-0.0295224625965395,"['Cr', 'Li', 'O', 'P']"
mp-1641018,Li3Co2(CO3)4,4,True,0.1336401510874471,-0.0326418524563062,-0.4385274223752323,False,-0.8358780733883787,0.2141009229818589,"['C', 'Co', 'Li', 'O']"
mp-738610,LiH20C8ClO4,5,False,1.6261537551073075,0.5571422107563834,2.4648623729403405,True,-1.7538903871677571,0.6533022522305456,"['C', 'Cl', 'H', 'Li', 'O']"
mp-673092,Li4Sn(PO3)6,4,False,-0.6707790723387753,0.0291590984261139,2.2128470553525474,True,-0.5606142943730816,-0.2168569606228904,"['Li', 'O', 'P', 'Sn']"
mp-1175424,Li9Mn2Co5O16,4,True,0.1518638042858958,0.2156666211447819,-0.509419426006188,False,0.3319383491248103,-0.4217466940635577,"['Co', 'Li', 'Mn', 'O']"
mp-770515,Li4Co2C4SO16,5,True,0.1606927200362564,0.0538514346099595,-0.840519614884293,False,-0.7242268151162611,0.4935252754472963,"['C', 'Co', 'Li', 'O', 'S']"
mp-504262,LiCo(PO3)3,4,True,-0.5534710999557173,-0.0542274874200321,1.1999783998458853,True,-0.4249613650607079,-0.3059974125081,"['Co', 'Li', 'O', 'P']"
mp-616572,Li2P2PdO7,4,False,-0.4423559600626091,0.1051997930342435,-0.0632805416467132,False,-0.3469354515421134,-0.364991855850418,"['Li', 'O', 'P', 'Pd']"
mp-778389,Li6MnV3(PO4)6,5,True,-0.7433641963020925,-0.1015824323892684,-0.4185530756024216,False,-0.4064869326711109,1.2617453055244503,"['Li', 'Mn', 'O', 'P', 'V']"
mp-1225894,CsLiMnS2,4,True,0.7984123111851893,0.5738938567792226,-0.3202386636901506,False,-0.1635810118455708,-0.8840220284254996,"['Cs', 'Li', 'Mn', 'S']"
mp-1370648,Li9Mn2Co5O16,4,True,1.3817754821364778,0.5400293119874157,-0.8682128617659177,False,0.3392627258638512,-0.4238460107197579,"['Co', 'Li', 'Mn', 'O']"
mp-1176659,LiVCO5,4,False,-0.157083286307281,-0.1333493729987598,0.304247438972991,True,-0.6093910641565887,0.786815875459011,"['C', 'Li', 'O', 'V']"
mp-561336,Li2Mg2Si4O11,4,False,-1.253437755508276,-0.062470165149158,2.605021348600397,True,-0.6662090121057025,-0.0167288772442633,"['Li', 'Mg', 'O', 'Si']"
mp-759360,LiBi(PO3)4,4,False,-0.5488434249993192,-0.0057337059589483,1.369320234689268,True,-0.3425867183868134,1.9117469155279436,"['Bi', 'Li', 'O', 'P']"
mp-1174672,Li4MnCo2O7,4,True,0.1425693459533302,0.2147274096115996,-0.2372943423454303,False,0.2148145558028606,-0.5019116464466125,"['Co', 'Li', 'Mn', 'O']"
mp-1175720,Li9Mn2Co5O16,4,True,0.1775386570513035,0.222437810068307,-0.6526253359197242,False,0.315520709602373,-0.4170015092426611,"['Co', 'Li', 'Mn', 'O']"
mp-773184,Li2MnSnO4,4,True,-0.1641765123419071,0.1614566750598055,-0.204726000658239,False,0.7057034137297094,-0.7361491746831776,"['Li', 'Mn', 'O', 'Sn']"
mp-1174371,Li4Co3O7,3,True,0.3333482059988245,0.3070835780459209,-0.7070638945818911,False,0.2985718253849119,-0.514744929070418,"['Co', 'Li', 'O']"
mp-1177391,Li4MnV3O8,4,True,-0.45154748223776,-0.0969530063438762,-0.470960344762269,False,0.1305578608676331,-0.7963500821572849,"['Li', 'Mn', 'O', 'V']"
mp-26701,Li3Sn2(PO4)3,4,False,-0.5987636255136318,0.0843500176473692,0.8289295174221608,True,-0.1641648310118011,1.7341771321113215,"['Li', 'O', 'P', 'Sn']"
mp-850103,Li4V5(FeO6)2,4,True,-0.3206210859477847,-0.1778295207325343,0.0780294980646586,True,0.3387177276213676,0.0824530221830292,"['Fe', 'Li', 'O', 'V']"
mp-766019,Li2Ni(CO3)2,4,True,0.0585467790844181,0.03110269173626,1.2429740276449854,True,-0.7435123411225965,-0.5382704392382953,"['C', 'Li', 'Ni', 'O']"
mp-753786,LiCo2(PO4)2,4,True,-0.2609900278549524,-0.016309916561183,-0.6575004307252914,False,-0.5712018325002363,-0.1960564860959418,"['Co', 'Li', 'O', 'P']"
mp-757920,LiVPO5,4,False,-0.6702172710725562,-0.1303788397940502,0.216834280723169,True,-0.4675339077010537,-0.176826249927285,"['Li', 'O', 'P', 'V']"
mp-849457,Li3Ni(SbO3)4,4,True,0.0401107701467616,0.2814105289555894,-0.8682128617659177,False,1.2706467610537868,0.0494886917031452,"['Li', 'Ni', 'O', 'Sb']"
mp-776107,Li2FeF5,3,True,-1.0248011105367991,0.4757611989696719,1.737119053909282,True,-0.4841813619475181,-0.7162247174496315,"['F', 'Fe', 'Li']"
mp-759188,LiMn5P3O13,4,True,-0.5380850294002614,-0.2950955543281434,0.7292609125083428,True,-0.184811967912723,0.3699438541091493,"['Li', 'Mn', 'O', 'P']"
mp-753092,Li4Ni3O3F4,4,True,-0.3478150706157803,0.4631064574312594,0.5998677712105793,True,0.3831857762839558,-0.8745208757013134,"['F', 'Li', 'Ni', 'O']"
mp-8751,RbLiS,3,False,0.6924097953538715,1.041661373495714,0.990417032856574,True,-0.5547681879784051,-0.829499623914909,"['Li', 'Rb', 'S']"
mp-780977,Li4MnFe3(BO3)4,5,True,-0.4392522584184101,-0.1281799405921801,1.3558460143238815,True,-0.361778257126021,0.2124264817136284,"['B', 'Fe', 'Li', 'Mn', 'O']"
mp-776951,LiMnF3,3,True,-1.1364224583089928,0.2634266305571943,1.8401731413269664,True,-0.0640008972882997,-0.6142803784161899,"['F', 'Li', 'Mn']"
mp-777390,LiMn2F5,3,True,-1.0475055194665068,0.1816174331515425,1.41631073184293,True,-0.0904725659733155,-0.1143788061540302,"['F', 'Li', 'Mn']"
mp-752466,Li2Mn2(CO3)3,4,True,-0.0445674898372875,-0.1841359145368692,1.953722224506636,True,-0.5638198084198041,-0.2361778913910469,"['C', 'Li', 'Mn', 'O']"
mp-774883,LiFe3(SnS4)2,4,True,1.3689705434856403,0.4812800321203779,-0.8682128617659177,False,0.3407709314389014,-0.4857230222977904,"['Fe', 'Li', 'S', 'Sn']"
mp-863378,LiCoPO4,4,True,-0.4626166645532741,-0.0028871229755176,1.305470034666354,True,-0.4836160961020706,2.837922394109972,"['Co', 'Li', 'O', 'P']"
mp-753812,Li3Co2(CO3)4,4,True,0.135907429093076,-0.0320439067598484,-0.4392045188760048,False,-0.8456488820589131,-0.5077590664238092,"['C', 'Co', 'Li', 'O']"
mp-1247320,Li3RhN2,3,False,1.8604729559697568,-0.3669074894721522,-0.8682128617659177,False,0.3319597829829706,0.1325980727701744,"['Li', 'N', 'Rh']"
mp-26551,Li4Co5(P3O11)2,4,True,-0.4048500131106518,-0.0160151752967403,-0.8682128617659177,False,-0.2730855608253043,1.2303135225307775,"['Co', 'Li', 'O', 'P']"
mp-2710677,LiVF6,3,False,-1.0963780011019209,0.4344408995607629,1.2266560019763508,True,-0.7989381058490019,-0.9157371586341668,"['F', 'Li', 'V']"
mp-765496,LiV3F10,3,False,-1.275251885016328,0.2014424827303748,0.3645090275418085,True,-0.4377712004599106,-0.1547720198701286,"['F', 'Li', 'V']"
mp-778622,Li3Fe2(SiO4)2,4,True,-0.560000178995895,-0.0229413077461278,0.4467085427356776,True,-0.5768521906004026,-0.1866035686825405,"['Fe', 'Li', 'O', 'Si']"
mp-1174763,Li5Mn3O8,3,True,-0.147958744285841,0.1103918356001557,-0.8682128617659177,False,0.0269042637460515,-0.8238421327496026,"['Li', 'Mn', 'O']"
mp-1094580,LiMg,2,False,2.1631877668647643,1.1581434426766084,-0.8682128617659177,False,-1.7054183533733906,-0.863978897598126,"['Li', 'Mg']"
mp-760253,Li3MnF5,3,True,-1.1264837055246553,0.453175092429504,2.4198354556389208,True,-0.4977168287511829,-0.1487797462566369,"['F', 'Li', 'Mn']"
mp-675195,Li13(Mn3As4)2,3,True,1.7133489416576178,0.7317052429870151,-0.8682128617659177,False,0.0168489059138354,0.0563190569316195,"['As', 'Li', 'Mn']"
mp-756385,Li3V(CoO2)4,4,True,0.2005995258203779,0.0878228492994061,-0.8682128617659177,False,0.7638100804880861,-0.8112856748075042,"['Co', 'Li', 'O', 'V']"
mp-1307881,Li3TiMn4O8,4,True,-0.4106987425709676,-0.1989911723491423,-0.7289341115568668,False,0.3074066814759602,-0.2894879722233271,"['Li', 'Mn', 'O', 'Ti']"
mp-1105393,Li7(Eu2Bi3)2,3,False,1.388517854999889,0.57615363476149,-0.8682128617659177,False,2.269427114695185,0.0443475641692732,"['Bi', 'Eu', 'Li']"
mp-775182,Li3Mn4(BO3)4,4,True,-0.5391169443256093,-0.2240633191741678,-0.6138277064254193,False,-0.3950515245701456,0.2059335177204216,"['B', 'Li', 'Mn', 'O']"
mp-2759992,LiCu2F7,3,False,0.0628204446045741,0.2217313968411488,-0.6761205844965549,False,0.3995695143304215,-0.6491365100022288,"['Cu', 'F', 'Li']"
mp-770503,Li4V2Si(PO6)2,5,False,-0.7936453966411133,-0.0720384158186154,0.4066921395399802,True,-0.5722421932135224,1.4892950508021665,"['Li', 'O', 'P', 'Si', 'V']"
mp-850943,Li6TiNi3(PO4)6,5,True,-0.5268731755995539,0.036592929930564,-0.8682128617659177,False,-0.5289645833999089,0.1153318201121247,"['Li', 'Ni', 'O', 'P', 'Ti']"
mp-1177617,Li3Mn4O8,3,True,-0.1006390489653967,-0.0731245979708839,-0.8682128617659177,False,0.2071299051655793,-0.3675343574875028,"['Li', 'Mn', 'O']"
mp-758550,K4Li3Mn2O8,4,True,0.1379882890719737,0.4118254038593212,-0.4824709852754136,False,-0.7441400944397545,0.2708046774936423,"['K', 'Li', 'Mn', 'O']"
mp-759086,LiVF5,3,False,-1.2048075563624714,0.3687209499337172,0.6438113341107621,True,-0.7420523651092228,0.982183228130002,"['F', 'Li', 'V']"
mp-1175206,Li7Mn4CoO12,4,True,-0.0990786879085557,0.1039645357109886,-0.3103530547788609,False,0.139721870905937,-0.6092536035026551,"['Co', 'Li', 'Mn', 'O']"
mp-1235297,Sr2LiCuBrO2,5,False,0.1535697211068335,0.7118858032349007,-0.8682128617659177,False,0.2565965442463381,-0.8233180630374205,"['Br', 'Cu', 'Li', 'O', 'Sr']"
mp-754083,Li2Ni5O7,3,True,0.6737522287499407,0.3205368073191479,-0.8682128617659177,False,1.3980972310879407,-0.8938399994477727,"['Li', 'Ni', 'O']"
mp-729170,LiMn4(PO4)3,4,True,-0.6104422402505005,-0.2786736042975459,1.3959301271696554,True,-0.021393947301397,0.0813515465149174,"['Li', 'Mn', 'O', 'P']"
mp-755129,Li2MnFe(BO3)2,5,True,-0.4889792770573464,-0.1496602205204892,1.3129858058249366,True,-0.372621849372076,-0.5105420889280342,"['B', 'Fe', 'Li', 'Mn', 'O']"
mp-1191877,LiGdSn,3,False,1.447480020127441,-0.0133004531110123,-0.8682128617659177,False,1.8426165093960585,0.4302760579372195,"['Gd', 'Li', 'Sn']"
mp-26126,LiFe(PO3)4,4,True,-0.5889248679367919,-0.0901305548284003,0.3515087747269627,True,-0.6560621065155922,1.3841504414253922,"['Fe', 'Li', 'O', 'P']"
mp-857362,LiMnPO4,4,True,-0.6372667195365549,-0.1330320236461475,1.222390294021479,True,-0.3020657017744235,0.5857813718264661,"['Li', 'Mn', 'O', 'P']"
mp-26359,Li2Co(PO3)4,4,True,-0.6248353370636927,-0.0307847413865997,1.3066210987176683,True,-0.774640873060002,0.1997385503813975,"['Co', 'Li', 'O', 'P']"
mp-767369,Li4Ti4MnCr4O18,5,True,-0.8040690450541167,-0.3211071794734122,-0.3713594494985281,False,0.0384638546998716,0.7014799844321288,"['Cr', 'Li', 'Mn', 'O', 'Ti']"
mp-1177952,Li2FeBAsO7,5,True,-0.0569503200731487,0.1147516325876091,-0.6665058141855752,False,-0.5302897113807987,-0.3709503833040549,"['As', 'B', 'Fe', 'Li', 'O']"
mp-849257,LiFeSiO4,4,True,-0.557733648900111,-0.0837820252415897,1.0383554651113185,True,-0.5999964789302589,-0.1971829063324781,"['Fe', 'Li', 'O', 'Si']"
mp-556531,LiSi2BO6,4,False,-1.1960900024702754,-0.2020882537264689,3.0883328308523224,True,-0.847093701438222,1.3857145775880515,"['B', 'Li', 'O', 'Si']"
mp-1176181,Li9Mn2Co5O16,4,True,0.1955723678041644,0.2271938125122371,-0.8682128617659177,False,0.2769663209531089,-0.4056382779126751,"['Co', 'Li', 'Mn', 'O']"
mp-764502,Li3Fe4(BO3)4,4,True,-0.3609663010787111,-0.1421615939158302,0.2804813517958517,True,-0.3142905459860172,0.1634020686601285,"['B', 'Fe', 'Li', 'O']"
mp-765289,LiSnPO4,4,False,-0.4558935613609354,0.1283682467865022,1.3829298743548104,True,-0.1872675329705337,-0.0188213378665596,"['Li', 'O', 'P', 'Sn']"
mp-1174832,Li4MnCo2O7,4,True,0.1603439800399986,0.2194150861699443,-0.8682128617659177,False,0.2458763873802678,-0.5102125492653068,"['Co', 'Li', 'Mn', 'O']"