material_id,formula_pretty,n_elements,contains_transition_metal,formation_energy_per_atom,energy_per_atom,band_gap,is_semiconductor,density,volume,elements
mp-768948,Li2MnPCO7,5,True,-0.3833559333452309,-0.0677231325411272,-0.8682128617659177,False,-0.6916711263639627,0.3420232969999496,"['C', 'Li', 'Mn', 'O', 'P']"
mp-755365,Li2MnSnO4,4,True,-0.1818698091701748,0.1567904494499112,-0.8682128617659177,False,0.7200548356377654,-0.2386111901203793,"['Li', 'Mn', 'O', 'Sn']"
mp-1235745,Li(CoO2)2,3,True,0.7087046779910322,0.2348154749151091,-0.8682128617659177,False,0.4360918509169114,-1.0324928553574533,"['Co', 'Li', 'O']"
mp-641703,Li7P3S11,3,False,0.9751192043255262,0.7578721269206335,0.8166063611080883,True,-1.257917792310408,1.29623604749662,"['Li', 'P', 'S']"
mp-780879,LiMn3P3(HO6)2,5,True,-0.4743845556417171,-0.1311448878706481,1.592626660644276,True,-0.3027527559886009,0.0957177379137883,"['H', 'Li', 'Mn', 'O', 'P']"
mp-761141,Li11V12(CoO8)4,4,True,-0.3061126491512052,-0.100282270955337,-0.1687721764671804,False,0.218043215150332,0.45033056759134,"['Co', 'Li', 'O', 'V']"
mp-849720,LiFe4(BO3)4,4,True,-0.2795317320692372,-0.2189563822700753,0.2506213961117527,True,-0.3694939774669071,0.1579345219607763,"['B', 'Fe', 'Li', 'O']"
mp-1175802,Li9Mn2Co5O16,4,True,0.2056510234432292,0.2298518406633935,-0.8682128617659177,False,0.2712076037046048,-0.4039139452879637,"['Co', 'Li', 'Mn', 'O']"
mp-757605,Li2V3CoO8,4,True,-0.3736125841843223,-0.1718930405918682,-0.8682128617659177,False,0.1362658570837288,-0.8092932294490897,"['Co', 'Li', 'O', 'V']"
mp-1185429,LiTb3,2,False,2.378678749970071,-4.802250539933257,-0.8682128617659177,False,2.0739796065418687,-0.8995570492905278,"['Li', 'Tb']"
mp-560209,Li9Al3P8O29,4,False,-0.9854338575324508,0.0043991154071269,2.760144156927542,True,-0.791575362107333,1.9565417957765168,"['Al', 'Li', 'O', 'P']"
mp-761730,LiCo3CuO8,4,True,0.953671849599366,0.2950659355892356,-0.8682128617659177,False,0.5040275100308248,-0.8385889299260713,"['Co', 'Cu', 'Li', 'O']"
mp-867227,Li3Pt,2,False,1.695247479187919,-2.2682926014396387,-0.8682128617659177,False,1.8955868860027891,-1.080897823383724,"['Li', 'Pt']"
mp-1028092,LiMg14Mn,3,True,2.2547350824811154,1.518687125654724,-0.8682128617659177,False,-1.2333032540461812,-0.2269292951728176,"['Li', 'Mg', 'Mn']"
mp-1273514,Li2MnV3O8,4,True,-0.4992658047783403,-0.2470737255863984,0.2447306565550256,True,0.031891521677854,-0.7967214884383631,"['Li', 'Mn', 'O', 'V']"
mp-648988,NaLiCO3,4,False,2.223976314784161,0.8039872972777112,-0.8682128617659177,False,-1.3230642328097286,-0.5083313128377059,"['C', 'Li', 'Na', 'O']"
mp-758955,LiCuPO4,4,False,-0.2085647956581957,0.1898805445952401,-0.8007740502889056,False,-0.4149266545118864,-0.224289876842619,"['Cu', 'Li', 'O', 'P']"
mp-1345407,LiSnP2O7,4,False,1.873130267677175,0.6773629205706814,-0.8682128617659177,False,-0.2150153856348494,-0.4002419146424426,"['Li', 'O', 'P', 'Sn']"
mp-757421,Li2Cr3Si3O10,4,False,-0.763672096730882,-0.2509243194489547,0.7105053394369244,True,-0.2940736671217598,-0.0385949414814373,"['Cr', 'Li', 'O', 'Si']"
mp-757322,LiVPO4,4,False,-0.6643098075720021,-0.1369264547113431,0.8426745763878573,True,-0.3816727145053977,0.1448266608460186,"['Li', 'O', 'P', 'V']"
mp-26177,Li3Co3(PO4)4,4,True,-0.3091047560631453,0.029303719766352,-0.6058379677162953,False,-0.4539611885188799,-0.3366643455371442,"['Co', 'Li', 'O', 'P']"
mp-1174953,Li7Mn2(CoO4)3,4,True,0.0930366322809963,0.203680226175482,-0.6804540021015042,False,0.2830292484737697,-0.6323512664463797,"['Co', 'Li', 'Mn', 'O']"
mp-26963,LiVPO5,4,False,-0.7616859772816738,-0.154501739192594,0.1904952268430907,True,-0.3728211265261776,-0.2238801732405363,"['Li', 'O', 'P', 'V']"
mp-1661801,Li3Mn8(OF3)4,4,True,-0.7724077616220452,0.0263652053428644,-0.3563956168314399,False,-0.0624519030042895,-0.2517223975407638,"['F', 'Li', 'Mn', 'O']"
mp-767392,Li7Ti7Nb5O30,4,False,-1.2178859745149893,-0.3668571755674357,0.5685182032247801,True,0.1672353485840061,0.3538954871676549,"['Li', 'Nb', 'O', 'Ti']"
mp-758054,LiAgF4,3,False,0.1490563637328849,-0.1747502742458504,-0.1956529075478779,False,-0.1030581872805829,-0.7293416970855111,"['Ag', 'F', 'Li']"
mp-1172969,Li2FePO4F,5,True,-0.6596943064451962,0.0942813885741224,1.99583762685473,True,-0.4225561806600699,-0.6732830058671581,"['F', 'Fe', 'Li', 'O', 'P']"
mp-9657,LiAsO3,3,False,-0.0117395503916876,0.292496285220868,1.4243004705520534,True,0.5446040682484249,-0.9652995237298092,"['As', 'Li', 'O']"
mp-766497,Li3Fe3(BO3)4,4,True,-0.3783608670449717,-0.1071200721312908,0.3690455740969884,True,-0.5080012995266328,0.1200191732029537,"['B', 'Fe', 'Li', 'O']"
mp-752512,Li6CuO4,3,False,0.1567332425359225,0.647803476918521,-0.719861018446505,False,-0.6494609152913613,-0.6544134559066633,"['Cu', 'Li', 'O']"
mp-776600,LiFeB2O5,4,True,-0.4830116099695696,-0.1514781632850308,0.5273507359777674,True,-0.4307454092868293,0.7919953903293386,"['B', 'Fe', 'Li', 'O']"
mp-760516,Li2CoSiO4,4,True,-0.5748952763459398,0.0753656613568441,0.9974588364646154,True,-0.2920753673684067,-0.2837119381938668,"['Co', 'Li', 'O', 'Si']"
mp-755564,Li2Mg2MnFe(PO4)4,6,True,-0.7774171923623341,-0.0672399894796723,-0.1494072165450669,False,-0.4022897426534166,0.4464530028729334,"['Fe', 'Li', 'Mg', 'Mn', 'O', 'P']"
mp-684539,Li3Sb2(PO4)3,4,False,-0.5392768326350093,0.0965731619859746,1.571839798070539,True,-0.3206337166487972,1.982456323820834,"['Li', 'O', 'P', 'Sb']"
mp-1275794,LiFe2OF3,4,True,-0.4722552509945484,0.1898474392728123,1.0267094052980186,True,-0.0009919776239255,-0.7479424343452429,"['F', 'Fe', 'Li', 'O']"
mp-1235788,LiTa2Te4Br10O,5,False,0.8152720957570464,0.7941271804587444,-0.6849905486566847,False,0.1776607495917844,0.7848577059874933,"['Br', 'Li', 'O', 'Ta', 'Te']"
mp-772703,Li4CoNi5O12,4,True,0.7295510739093651,0.3721419005520038,-0.7489761679797542,False,0.4668952134598221,-0.6213762705043576,"['Co', 'Li', 'Ni', 'O']"
mp-776027,LiFeF3,3,True,-0.8291965878103618,0.3846069144708877,1.272766273679007,True,-0.2632786845889342,0.13066740863427,"['F', 'Fe', 'Li']"
mp-1249661,LiMnSiO4,4,True,-0.7035670135098034,-0.1509253482277399,-0.7526324890839297,False,-0.1017097824818024,1.2238655503160183,"['Li', 'Mn', 'O', 'Si']"
mp-780392,Li5Cu(PO4)2,4,False,-0.6040514589196317,0.2177985836894765,0.3817072786614484,True,-0.5723224389048787,-0.2834288359846414,"['Cu', 'Li', 'O', 'P']"
mp-773051,Li2Mn3(SeO3)4,4,True,0.2587075519259357,0.1609003516230026,1.0206155367910597,True,-0.0174641918933857,0.529704366356463,"['Li', 'Mn', 'O', 'Se']"
mp-755172,Li5V3(FeO5)2,4,True,-0.2461489022953956,-0.0235553870926776,-0.8629992187099647,False,0.1747605455788413,-0.6892446491209063,"['Fe', 'Li', 'O', 'V']"
mp-1176885,Li7Fe6(SiO4)6,4,True,-0.5934065260774718,-0.0717579545636479,0.4807664967245706,True,-0.574338111390338,0.3141017621534032,"['Fe', 'Li', 'O', 'Si']"
mp-1096082,Li2HgPb,3,False,3.0605243149824424,1.7772006358311212,-0.8632023476601959,False,-2.0645149537704595,1.8045045783753284,"['Hg', 'Li', 'Pb']"
mp-757946,Li2SnP2O7,4,False,-0.5881723820314366,0.0950407400902918,1.2234059387726397,True,-0.3687593914060278,0.5996552750045523,"['Li', 'O', 'P', 'Sn']"
mp-770706,Li6MnAlO6,4,True,-0.352903735532481,0.3255297668141604,-0.1605793088078245,False,-0.562183216218407,-0.5145781620184618,"['Al', 'Li', 'Mn', 'O']"
mp-1293029,Li3Co3SbO8,4,True,0.2820372011352011,0.2428710739709357,-0.4832835010763422,False,0.6565042514017686,-0.3313936469869849,"['Co', 'Li', 'O', 'Sb']"
mp-1291670,Li2V3CoO8,4,True,-0.3306933701792974,-0.1605740231418921,-0.3178011162873663,False,0.1938242507999866,-0.3987019890356165,"['Co', 'Li', 'O', 'V']"
mp-757512,Li2Cr4Si4O13,4,False,-0.7612541066265129,-0.2824815943124617,0.127931510171645,True,-0.2348027986711581,0.291474439096368,"['Cr', 'Li', 'O', 'Si']"
mp-1111834,Cs2LiTaBr6,4,False,0.4093901378586169,0.909356244318466,-0.8682128617659177,False,0.6453520952294447,-0.2891676876872902,"['Br', 'Cs', 'Li', 'Ta']"
mp-642650,LiP(HO)2,4,False,0.3271020154456561,0.46391522101947,2.7315029749448345,True,-1.5311417583467266,-0.7662435284782707,"['H', 'Li', 'O', 'P']"
mp-773075,Li2V2(Si2O5)3,4,False,-1.0309292273724735,-0.2274719253930426,0.0246065841536515,True,-0.7729563063367215,2.6368322926976315,"['Li', 'O', 'Si', 'V']"
mp-1176592,LiTi(PO3)4,4,False,-0.834989856510555,-0.1457638763061053,-0.8466134833912528,False,-0.6373289606364034,0.0325311812009604,"['Li', 'O', 'P', 'Ti']"
mp-1094576,Li2Mg,2,False,2.145095938228516,1.2395748264894235,-0.8682128617659177,False,-1.819957696447376,-0.8826216541107237,"['Li', 'Mg']"
mp-756456,Li2Cr3FeO8,4,True,-0.0422977038549978,-0.1476028549266944,-0.8590720590054792,False,0.2806657107084107,-0.4246588028951013,"['Cr', 'Fe', 'Li', 'O']"
mp-32027,Li2Mn3(P2O7)2,4,True,-0.6942277839673328,-0.1863696130110063,1.6377212875957732,True,-0.3500709112747259,0.3267265210182035,"['Li', 'Mn', 'O', 'P']"
mp-757368,LiCoPO4,4,True,-0.3898517677690927,0.0174333796955891,0.98872429160464,True,-0.4445634155885049,-0.2384069253230539,"['Co', 'Li', 'O', 'P']"
mp-768361,Li2Fe2S3,3,True,1.2035021178095509,0.481144229989444,-0.8275870717195252,False,-0.5659363107355881,0.2263493938563912,"['Fe', 'Li', 'S']"
mp-1567236,LiMn2(BO3)2,4,True,-0.4938425671087917,-0.2606126344551842,-0.3016185099188864,False,-0.4121287697826721,-0.520846458017064,"['B', 'Li', 'Mn', 'O']"
mp-585408,Li3Sn2(PO4)3,4,False,-0.5850879065875157,0.0879566936957136,1.03097511325289,True,-0.4207512055913206,0.4306113551841853,"['Li', 'O', 'P', 'Sn']"
mp-1653728,Li7Co5O12,3,True,0.2798982899322881,0.3020103764029176,-0.5887751358968094,False,0.3517661759134323,-0.0377437212808521,"['Co', 'Li', 'O']"
mp-775190,Li2V3CuO8,4,False,-0.2671822026512476,-0.0809408398928599,-0.8682128617659177,False,0.2251902199626675,-0.8178283290391852,"['Cu', 'Li', 'O', 'V']"
mp-768869,Li2VBO4,4,False,-0.6090370676208252,-0.0498630341552054,0.75031861368239,True,-0.4939668463462299,-0.3489828279306187,"['B', 'Li', 'O', 'V']"
mp-773057,Li3Mn2(PO4)3,4,True,-0.640604276787487,-0.076181459112821,-0.2743992305878028,False,-0.5393198216884808,1.4693791356305934,"['Li', 'Mn', 'O', 'P']"
mp-757307,LiV(SiO3)2,4,False,-1.0685234303068492,-0.2382117243914606,0.5696015576260172,True,-0.4182566563634182,-0.2712886303275396,"['Li', 'O', 'Si', 'V']"
mp-1175848,Li9Mn2Co5O16,4,True,0.1629491370929451,0.2185901386972492,-0.790143635226766,False,0.2799330062965247,-0.4065238134106738,"['Co', 'Li', 'Mn', 'O']"
mp-1100632,Li9Mn2Co5O16,4,True,0.2076146955685543,0.2303697168539967,-0.8682128617659177,False,0.2537788721756908,-0.398651462847413,"['Co', 'Li', 'Mn', 'O']"
mp-1173982,Li3Co2O5,3,True,0.3357711499967206,0.3293779247886403,-0.6611567518294668,False,0.1801990462332317,-0.7164084170937307,"['Co', 'Li', 'O']"
mp-757461,Li2CrSiO5,4,False,-0.6209469309716014,-0.0317718157811474,-0.696094931269365,False,-0.3720758237120867,0.8510176342202963,"['Cr', 'Li', 'O', 'Si']"
mp-1178046,Li2Co(CO3)2,4,True,0.0177512657768974,-0.0153517862081708,1.1265134295119907,True,-0.9836771227338924,0.3840037488400033,"['C', 'Co', 'Li', 'O']"
mp-1100611,Li9Mn2Co5O16,4,True,0.1910757370065725,0.2260079230768416,-0.8682128617659177,False,0.2734868331765688,-0.404597268327783,"['Co', 'Li', 'Mn', 'O']"
mp-1174269,Li4Co3O7,3,True,0.33099915233447,0.3064640657823771,-0.5585089223122471,False,0.3270129532195184,-0.521999347414791,"['Co', 'Li', 'O']"
mp-1235193,RbLiAgO2,4,False,1.051529721056834,0.90916916817505,-0.8682128617659177,False,0.2855196949424017,-0.9715103583926624,"['Ag', 'Li', 'O', 'Rb']"
mp-557857,SrLi2Nb2O7,4,False,-1.1451212720842443,-0.222413506058434,0.2566475549686344,True,0.4969989588806848,-0.3858739728476057,"['Li', 'Nb', 'O', 'Sr']"
mp-1232987,K2LiNd4Nb2O12,5,False,-1.27243407313788,-0.2174734563589602,-0.8682128617659177,False,1.1505351718428836,-0.3265559583707053,"['K', 'Li', 'Nb', 'Nd', 'O']"
mp-39020,LiTa3N4,3,False,0.6402743769937085,-4.99034280059662,-0.8682128617659177,False,5.808687602186974,0.1637743484158028,"['Li', 'N', 'Ta']"
mp-778016,Li3MnV(PO4)3,5,True,-0.6682537052885039,-0.0823402396739727,-0.8682128617659177,False,-0.3879500523978519,1.2519875200043864,"['Li', 'Mn', 'O', 'P', 'V']"
mp-887443,Li12Mn3V5(PO4)12,5,True,-0.7608106842481481,-0.1064668575134185,-0.4920857555863934,False,-0.5529942918719088,1.4555343644920684,"['Li', 'Mn', 'O', 'P', 'V']"
mp-756053,LiCoBO3,4,True,-0.2539454355149851,-0.0063079804647473,1.0239333096448486,True,-0.4780545801687045,-0.4503953971622226,"['B', 'Co', 'Li', 'O']"
mp-1222775,Li2FeCoO4,4,True,0.2958694557030982,0.1945844246532556,-0.8679420231656091,False,0.651892001865541,-1.0426227410277045,"['Co', 'Fe', 'Li', 'O']"
mp-26921,Li2Ni5(PO4)4,4,True,-0.2354089440812725,0.0415382106300195,1.5991944967017773,True,0.0706154884938819,-0.3835250180456354,"['Li', 'Ni', 'O', 'P']"
mp-1177583,Li3MnV(PO4)3,5,True,-0.6938809359908207,-0.0890988693049847,-0.5296646113793072,False,-0.5388691897162409,1.442730177574967,"['Li', 'Mn', 'O', 'P', 'V']"
mp-760316,Li3VFe3O8,4,True,-0.045940474454306,-0.0170320642473544,-0.0445926782253717,False,0.2984262870911176,-0.3987606260845934,"['Fe', 'Li', 'O', 'V']"
mp-755038,Li5FeO3F2,4,True,-0.4082695928795679,0.4634077693401201,0.977484489691805,True,-0.7149151224445527,-0.922482035544564,"['F', 'Fe', 'Li', 'O']"
mp-780964,Li2CrP2O7,4,False,6.000411446105445,1.696184283127211,-0.8682128617659177,False,-0.6266969780506735,-0.420726491502738,"['Cr', 'Li', 'O', 'P']"
mp-770698,Li2AlFeO4,4,True,-0.4890405533601742,0.110453066353764,1.1463523569846468,True,-0.5296059595350088,-0.1963602811615818,"['Al', 'Fe', 'Li', 'O']"
mp-764796,Li3Fe8(BO3)8,4,True,-0.2995127333724776,-0.1979440544691445,0.240397238950077,True,-0.3606055644776397,0.1625229456057348,"['B', 'Fe', 'Li', 'O']"
mp-567395,Li15Au4,2,False,1.782592965793768,-1.62774996160761,-0.8682128617659177,False,0.722205168645714,0.532979971410808,"['Au', 'Li']"
mp-1100520,Li9Mn7O16,3,True,-0.179173925739715,0.0363949006429129,-0.4702155386114183,False,0.0954024688899751,-0.3722077587173785,"['Li', 'Mn', 'O']"
mp-34052,Li7Ti7O16,3,False,-1.210549299105803,-0.2099455627434914,-0.8682128617659177,False,-0.1333824350947854,-0.374401209199348,"['Li', 'O', 'Ti']"
mp-758757,Li2Mn3O6,3,True,-0.0758563081693132,-0.09003114818162,-0.8682128617659177,False,0.17995215154251,0.7281112530891729,"['Li', 'Mn', 'O']"
mp-770343,Li3V(BO3)2,4,False,-0.6559880106129374,-0.0331759982026527,0.9734896203372428,True,-0.6430007094399025,0.06413967033382,"['B', 'Li', 'O', 'V']"
mp-754600,LiCrFeO4,4,True,-0.0088083910981336,-0.1142527546618084,-0.7533772952347801,False,0.1441946408666367,-0.8058297067782355,"['Cr', 'Fe', 'Li', 'O']"
mp-25847,Li3Ni2(PO4)3,4,True,-0.3128005192457838,0.1083941096769141,-0.8682128617659177,False,-0.2701571386526996,-0.0256085611083721,"['Li', 'Ni', 'O', 'P']"
mp-760095,LiMnF3,3,True,-1.0761683274281288,0.2793173586304954,0.7745586684100713,True,-0.4166847276016311,-0.1446139420918585,"['F', 'Li', 'Mn']"
mp-1188344,CsLiCl2,3,False,-0.1567800825558918,-1.389564064132312,2.5899220966331544,True,-0.5567164556066356,0.1470394771808512,"['Cl', 'Cs', 'Li']"
mp-758514,Li3Fe3(PO4)4,4,True,-0.4418370574429735,-0.0504491684323111,0.3118986294317293,True,-0.5471268345882391,0.6201379777876131,"['Fe', 'Li', 'O', 'P']"
mp-1093690,LiLa2In,3,False,4.2870613355424805,-3.45671884222815,-0.6914906750641078,False,-2.179271316039811,2.6481213813316877,"['In', 'La', 'Li']"
mp-1236065,LiCd4(TcO3)4,4,False,0.5151906502479071,0.2022357746125977,-0.8682128617659177,False,2.1766796877429617,-0.5257299609931285,"['Cd', 'Li', 'O', 'Tc']"
mp-764770,Li13Mn2O9,3,True,-0.0527670718872073,0.4649331337362672,-0.8682128617659177,False,-0.8835444050256877,0.1200342020280602,"['Li', 'Mn', 'O']"
mp-773074,LiZr2(PO4)3,4,False,-1.2824120034020663,-0.3247643177028291,2.1041053573283683,True,-0.508546691279516,0.28301930761118,"['Li', 'O', 'P', 'Zr']"
mp-755559,LiNbO3,3,False,-0.9575790495958116,-0.2721174005969548,1.4919424109792987,True,0.1159297867761002,-0.876784127965651,"['Li', 'Nb', 'O']"
mp-1112624,Cs2LiGdCl6,4,False,-0.5598587487807806,0.5528020041938813,1.015469603385183,True,-0.1612140979922949,-0.3599629455045923,"['Cl', 'Cs', 'Gd', 'Li']"
mp-1178038,Li2BiS2,3,False,1.038254712118283,0.8849932657201046,-0.8682128617659177,False,0.4031665109466008,-0.922007684710568,"['Bi', 'Li', 'S']"
mp-4711,Li2CuO2,3,False,0.3427494049755591,0.5954689992183828,-0.8682128617659177,False,0.011396639215355,-1.0988721783640147,"['Cu', 'Li', 'O']"
mp-759220,Li2MnPO4F,5,True,-0.8129617898954357,0.0315514585441195,1.8503972984886408,True,-0.4396008643596386,1.0286774874843565,"['F', 'Li', 'Mn', 'O', 'P']"
mp-1246424,LiCrN,3,False,1.7160697431634653,0.0666612639831007,-0.8682128617659177,False,0.5166974907662909,-0.9287986933306728,"['Cr', 'Li', 'N']"
mp-1093611,Li2CdRh,3,False,3.7163793941869847,-1.0364996705675462,-0.7658358708490067,False,-2.1619517746236294,0.8798521582801169,"['Cd', 'Li', 'Rh']"
mp-778800,LiMnF3,3,True,-1.096287965301827,0.2740112378764449,1.6549872483654904,True,-0.3879487709414543,-0.1594283548411175,"['F', 'Li', 'Mn']"
mp-2913172,LiVF4,3,False,-1.3232195784408862,0.2879936759068932,0.6857913171587011,True,-0.7219008925504041,-0.9978395085251794,"['F', 'Li', 'V']"
mp-1175348,Li7Mn4CoO12,4,True,-0.056361437720752,0.1152302895580685,-0.8013834371396008,False,0.0797995098305399,-0.5946973252695766,"['Co', 'Li', 'Mn', 'O']"
mp-7507,Sr3Li2,2,False,2.195015027251874,-0.79604266499721,-0.8682128617659177,False,-1.0527198048352298,1.2002278737169216,"['Li', 'Sr']"
mp-758421,Li2FeSiO4,4,True,-0.5881684038925485,0.0233885878858184,1.1624672537030498,True,-0.5873292257316362,0.9227546188433334,"['Fe', 'Li', 'O', 'Si']"
mp-9723,Sr4Li(BN2)3,4,False,0.7943016273474399,0.1162272928057287,0.5324289597335673,True,-0.0088808051422105,-0.6300907845523601,"['B', 'Li', 'N', 'Sr']"
mp-18704,CsLiBeF4,4,False,-1.5169687008181352,0.5496157494610179,3.8962443755749296,True,-0.3375407892244472,0.0905517741521787,"['Be', 'Cs', 'F', 'Li']"
mp-1095979,Li2CdBi,3,False,2.967584198297422,-3.72678459296944,-0.8682128617659177,False,-2.1601625208211237,1.84419383795555,"['Bi', 'Cd', 'Li']"
mp-775979,Li2FeO2F,4,True,-0.3113596543865989,0.2913280605271496,0.5748829103320483,True,-0.1420779846287332,-0.5836728993049379,"['F', 'Fe', 'Li', 'O']"
mp-754085,Li2BiS2,3,False,1.0438649420238475,0.8864728429134806,-0.8682128617659177,False,0.4223830130064051,-0.6100108562307355,"['Bi', 'Li', 'S']"
mp-754180,Li3Ti2CoO6,4,True,-0.7869814412288917,-0.0793699690195904,-0.6685371036878949,False,0.1928734809228185,-0.593476242639766,"['Co', 'Li', 'O', 'Ti']"
mp-771232,Li5Mn2Ni5O12,4,True,0.2795305319824867,0.2083433923603331,-0.8682128617659177,False,0.8145101358979483,-0.6300125740467841,"['Li', 'Mn', 'Ni', 'O']"
mp-1021291,LiMg6Cr,3,False,2.3472904960410617,1.3836593843248703,-0.8682128617659177,False,-1.1690187354045805,-0.2577582618243939,"['Cr', 'Li', 'Mg']"
mp-758410,LiP3W2O13,4,False,-0.5538829243156325,-0.2626136205401391,1.3785964567498616,True,0.3971121878945857,1.7446395945745743,"['Li', 'O', 'P', 'W']"
mp-1235495,Rb2Li(OsO3)2,4,False,0.5731124022717843,0.2124560826924472,-0.8682128617659177,False,1.0707079223282236,-0.6517657482453618,"['Li', 'O', 'Os', 'Rb']"
mp-766128,LiMn2(PO5)2,4,True,-0.2341556007422338,-0.0809659800489784,-0.8335455209263295,False,-0.2487189117709088,-0.2765801636376191,"['Li', 'Mn', 'O', 'P']"
mp-1232448,Li3MnCoO5,4,True,0.284019806891214,0.256870324071818,-0.8682128617659177,False,0.0291366042229092,-0.6954561765752661,"['Co', 'Li', 'Mn', 'O']"
mp-757298,Li3Cr2(PO4)3,4,False,-0.6607022085160862,-0.0957290358708581,0.5509814038547536,True,-0.6998509872253919,1.6678795070167298,"['Cr', 'Li', 'O', 'P']"
mp-1026820,LiMg14Nb,3,False,2.275519661480369,1.5071353189813792,-0.8682128617659177,False,-1.1162537728844275,-0.2244578520809053,"['Li', 'Mg', 'Nb']"
mp-1184982,Li2BiAu,3,False,1.66105659028527,-6.282275757222201,-0.8682128617659177,False,3.7778050927215103,-1.023920006055421,"['Au', 'Bi', 'Li']"