material_id,formula_pretty,n_elements,contains_transition_metal,formation_energy_per_atom,energy_per_atom,band_gap,is_semiconductor,density,volume,elements
mp-752660,LiCoSiO4,4,True,-0.3856738186135825,0.0169968425879096,0.067737631252905,True,-0.4939148399994052,-0.2323153608225252,"['Co', 'Li', 'O', 'Si']"
mp-1304966,LiVP3HO10,5,False,-0.5913444935972795,-0.0700055399684748,0.6184879249818437,True,-1.095679038590564,-0.5304430077813647,"['H', 'Li', 'O', 'P', 'V']"
mp-776449,Li2MnVP2(O4F)2,6,True,-0.8324789758644274,-0.0645459014994906,-0.5227582270714204,False,-0.3887398343140418,-0.1860225084094921,"['F', 'Li', 'Mn', 'O', 'P', 'V']"
mp-25257,Li15Bi4(PdO10)2,4,False,0.192400516370755,0.5031200267017001,-0.8439050973881591,False,1.0384745053947968,0.0937578355921242,"['Bi', 'Li', 'O', 'Pd']"
mp-1175904,Li9Mn2Co5O16,4,True,0.2858101788252129,0.2521299637023255,-0.8682128617659177,False,0.3184722185885386,-0.4178586455821972,"['Co', 'Li', 'Mn', 'O']"
mp-778583,Li3Mn2(CoO4)2,4,True,0.5056721875955741,0.1652559860926159,-0.8682128617659177,False,0.4108826556916709,-0.8244382948765765,"['Co', 'Li', 'Mn', 'O']"
mp-775750,LiFe(Si2O5)3,4,True,-0.909427454653828,-0.1789511556112034,-0.8682128617659177,False,-0.8330395182276247,2.370125175936801,"['Fe', 'Li', 'O', 'Si']"
mp-760283,Li3Cr(BO3)2,4,False,-0.68858416588827,-0.0555337821401803,1.254687797108362,True,-0.5958290574595323,0.0391051098402064,"['B', 'Cr', 'Li', 'O']"
mp-1235085,LiSm4Tm4O12,4,False,-1.8297094745728928,-0.2990409535205453,-0.6348854075994664,False,3.114277824242177,-0.3960470416614947,"['Li', 'O', 'Sm', 'Tm']"
mp-37436,Li7SbO6,3,False,-0.20487768544545,0.5069411150161478,1.5167918525576758,True,-0.1403678979083441,-0.8774311687220309,"['Li', 'O', 'Sb']"
mp-23774,K2LiAlH6,4,False,1.7636432007653362,1.18310105671897,0.8760554338759772,True,-1.41774346441586,-0.5434478967395227,"['Al', 'H', 'K', 'Li']"
mp-1113735,Rb2LiAuF6,4,False,-0.4228819199904999,0.8867710235344274,-0.5448992826467047,False,0.9148758182918564,-0.7801413914595061,"['Au', 'F', 'Li', 'Rb']"
mp-1026787,LiMg14Ga,3,False,2.1652683799197563,1.6063260816713372,-0.8682128617659177,False,-1.2058734114005154,-0.2118180210022603,"['Ga', 'Li', 'Mg']"
mp-752460,LiAgF4,3,False,0.1211630609811143,-0.1821065315283768,-0.2979621888147109,False,0.4839366874308874,-0.4201082159031706,"['Ag', 'F', 'Li']"
mp-1190287,LiCO2,3,False,0.0138347405029775,0.0166975729083292,1.5685897348668274,True,-1.1712418198611203,-0.7494534257213011,"['C', 'Li', 'O']"
mp-1222398,LiGa(GeSe3)2,4,False,1.301215955914232,0.8618055437358485,0.1544736930019546,True,0.2377884731768147,0.3868594177443205,"['Ga', 'Ge', 'Li', 'Se']"
mp-759430,LiCr(PO3)4,4,False,-0.6428558812280243,-0.1234232649353083,0.855877958152935,True,-0.5874317849388282,0.0133237851960605,"['Cr', 'Li', 'O', 'P']"
mp-7756,SrLiSb,3,False,1.050865564550375,1.0682500082356332,-0.4038600815356434,False,0.3922781030835086,-0.2814032489627289,"['Li', 'Sb', 'Sr']"
mp-863381,LiCoPO4,4,True,-0.3735527719034514,0.0206015586892528,1.0979399571793615,True,-0.7201629230051848,2.223128667103419,"['Co', 'Li', 'O', 'P']"
mp-851247,Li4V3P8O29,4,False,-0.659072724980109,-0.0970235062745372,-0.3925525699727299,False,-0.8361959180754239,2.1843286814335343,"['Li', 'O', 'P', 'V']"
mp-757944,LiNiPO4,4,True,-0.3356869221412398,0.0866808528999129,1.262542116517331,True,-0.4147128483900457,-0.2541250362873034,"['Li', 'Ni', 'O', 'P']"
mp-778498,Li2Cr3P9O28,4,False,-0.6697856541881306,-0.1581163724307797,1.164837091455755,True,-0.4683206279336499,0.1713104379068401,"['Cr', 'Li', 'O', 'P']"
mp-1275013,Li4TiCo3O8,4,True,-0.1148959584410879,0.1209108294501122,-0.446584870734433,False,0.3658082816399034,-0.3891286209419609,"['Co', 'Li', 'O', 'Ti']"
mp-774943,Li2Fe3NiO8,4,True,0.5165736738883989,0.1290888655906723,-0.8682128617659177,False,0.2626364229792118,0.4660592072195816,"['Fe', 'Li', 'Ni', 'O']"
mp-1245224,Li2O,2,False,0.0682680076311383,0.7089662036985033,0.9843231643496144,True,-1.3609867942908964,1.600650655165921,"['Li', 'O']"
mp-1175806,Li9Mn2Co5O16,4,True,0.1629260925399818,0.2185840611931948,-0.0889424990260176,False,0.2831548007597846,-0.4074833658816358,"['Co', 'Li', 'Mn', 'O']"
mp-849390,Li2Mn(Si2O5)2,4,True,-1.0648045637039203,-0.1784786333880372,1.2815008185389818,True,-0.7495448224870624,0.0058535303250127,"['Li', 'Mn', 'O', 'Si']"
mp-759900,K2LiNbO4,4,False,-0.6240162954899603,0.1387058377567322,1.8770749006191072,True,-0.6925366316216122,0.4716325249517791,"['K', 'Li', 'Nb', 'O']"
mp-851087,LiFeOF2,4,True,-0.5756349096347773,0.2754104766826357,-0.8682128617659177,False,-0.2390230038778265,-0.5780064294403663,"['F', 'Fe', 'Li', 'O']"
mp-861137,LiNi4(PO4)3,4,True,-0.1871886556875009,0.0291991931468232,0.6351444989008643,True,0.2024369448239343,0.0079744908061873,"['Li', 'Ni', 'O', 'P']"
mp-805574,LiCrPO4,4,False,3.1168499297329326,0.8366821970558304,-0.8682128617659177,False,-0.6615700716510908,3.037797720250795,"['Cr', 'Li', 'O', 'P']"
mp-759398,Li2V2Cu(PO4)3,5,False,-0.5608321486795712,-0.0846522386016662,-0.5694778856247733,False,-0.3426503606091292,0.1366893600852265,"['Cu', 'Li', 'O', 'P', 'V']"
mp-17159,Li2CrO4,3,False,-0.1257612488282679,0.1268587221473103,1.1403939077778424,True,-0.8466040908956405,0.2655451153073122,"['Cr', 'Li', 'O']"
mp-1176725,LiFe4(BO3)4,4,True,-0.283727204009518,-0.220062847549177,-0.8682128617659177,False,-0.3822284741120768,0.1662934313059249,"['B', 'Fe', 'Li', 'O']"
mp-765084,Li5V3P8O29,4,False,-0.7068807610557932,-0.0894520124074718,-0.2331640536907137,False,-0.7957757249467352,2.129580068682638,"['Li', 'O', 'P', 'V']"
mp-759552,Li2CrP4(H4O5)4,5,False,0.1081658026247613,0.2959306550249983,0.968072848331057,True,-1.109798342290412,1.1731576786223574,"['Cr', 'H', 'Li', 'O', 'P']"
mp-1236682,LiPrNdO2,4,False,0.2118455149310426,0.3546225834421926,-0.8682128617659177,False,1.9641335353111784,-1.0057224244873246,"['Li', 'Nd', 'O', 'Pr']"
mp-752816,Li3Ti2(NiO4)2,4,True,-0.4619498229563364,0.0114171579980362,-0.8682128617659177,False,0.2405997237295796,-0.8158772085967282,"['Li', 'Ni', 'O', 'Ti']"
mp-1222343,LiZnFeO3,4,True,0.1662956235194213,0.3019690893673588,0.2920597019590732,True,0.8895208762602048,-1.0718351793984615,"['Fe', 'Li', 'O', 'Zn']"
mp-764459,Li3Fe4(BO3)4,4,True,-0.3645631170953222,-0.1431101766007697,0.4145464589489488,True,-0.3148575745166645,0.1637642507674656,"['B', 'Fe', 'Li', 'O']"
mp-757337,Li2Ti3Ni(PO4)6,5,True,-0.8548882539641176,-0.1739388034769548,-0.8568376405529277,False,-0.6152213091992187,0.0932683517086576,"['Li', 'Ni', 'O', 'P', 'Ti']"
mp-1437,LiCd,2,False,1.86833359871304,-1.2314681937812255,-0.8682128617659177,False,1.0702542240893007,-1.0242064563952518,"['Cd', 'Li']"
mp-768398,Li24Ti5Cr7O36,4,False,-0.6262075245142144,0.0397750263866924,-0.0757391172609405,False,-0.186844022028704,0.6210885043712483,"['Cr', 'Li', 'O', 'Ti']"
mp-766538,Li12V3CrP4(CO7)4,6,False,-0.4869047671522933,-0.0232714505090424,0.4685110500605753,True,-0.7130862191640043,0.3837859921890605,"['C', 'Cr', 'Li', 'O', 'P', 'V']"
mp-754756,Li2NiO2,3,True,0.3638857913913247,0.5034997056491478,0.443661608482198,True,-0.2920579899422048,-1.0868306193551382,"['Li', 'Ni', 'O']"
mp-756199,Li3Mn2P2(CO7)2,5,True,-0.3111718697005774,-0.0900559879618542,-0.8682128617659177,False,-0.6652384357692253,-0.4714655231894281,"['C', 'Li', 'Mn', 'O', 'P']"
mp-759228,Li2FeP4(H4O5)4,5,True,0.1238570631254725,0.3080514965673376,1.904361889600268,True,-1.0807474562477544,1.141404217450123,"['Fe', 'H', 'Li', 'O', 'P']"
mp-1222312,LiEuS2,3,False,0.2949686773117994,0.1314435851818249,-0.8682128617659177,False,0.3191736889303791,-0.9851647839492296,"['Eu', 'Li', 'S']"
mp-1197547,Li15Pd4,2,False,1.9078824970798869,0.0926996356677458,-0.8682128617659177,False,-0.5110965419040606,0.4631594959962113,"['Li', 'Pd']"
mp-1236191,Ba2LiMn2(P2O7)2,5,True,-0.8211334546691544,-0.1285932847582649,-0.8682128617659177,False,-0.142191403867674,-0.2360400448345517,"['Ba', 'Li', 'Mn', 'O', 'P']"
mp-1174586,Li4MnCo2O7,4,True,0.1636517231776766,0.2202874321148407,-0.8682128617659177,False,0.2325543079855549,-0.5066754187517775,"['Co', 'Li', 'Mn', 'O']"
mp-772643,Li3V(PO4)2,4,False,-0.7588929435104782,-0.0131704236650868,0.9492495656095624,True,-0.4417671891287815,2.010754943798048,"['Li', 'O', 'P', 'V']"
mp-1206748,Li2CoSb,3,True,2.0143558803430985,-1.1008775570087146,-0.8682128617659177,False,0.9911416751879484,-1.059816109824288,"['Co', 'Li', 'Sb']"
mp-776588,Li2MnVP2(O4F)2,6,True,-0.8347235851613034,-0.0651378688127032,-0.816347269806689,False,-0.4260328349636701,0.3682949262618616,"['F', 'Li', 'Mn', 'O', 'P', 'V']"
mp-766000,LiVCr(P2O7)2,5,False,-0.7379485544265598,-0.1975036267529291,0.1631405282118518,True,-0.5816409045427028,-0.4762473164063452,"['Cr', 'Li', 'O', 'P', 'V']"
mp-778585,Li5Mn8(BO3)8,4,True,-0.5161073952467526,-0.2417010030316908,-0.740512461720089,False,-0.4154181779036203,0.209345625327541,"['B', 'Li', 'Mn', 'O']"
mp-1236668,LiSc2Al2(CO)2,5,False,0.4416008702110218,0.0298018860378845,-0.8682128617659177,False,-0.469856549702783,-0.9127632681509604,"['Al', 'C', 'Li', 'O', 'Sc']"
mp-1178049,Li2AlCoO4,4,True,-0.3990634995972081,0.1826591467964229,0.3372220385606477,True,-0.3983971444932983,-0.2423462682176932,"['Al', 'Co', 'Li', 'O']"
mp-756422,Li4CuSi2O7,4,False,-0.6532027108266681,0.1805856273346033,-0.4058913710379631,False,-0.5194759657490766,-0.8197710718297588,"['Cu', 'Li', 'O', 'Si']"
mp-753547,Li2NiP2O7,4,True,-0.5513812171187729,0.0619331896052219,1.966587058021327,True,-0.4162111584246106,0.2733410851282937,"['Li', 'Ni', 'O', 'P']"
mp-763559,Li2V(PO4)2,4,False,-0.7258875570800558,-0.065843961457923,-0.8682128617659177,False,-0.6325855099554523,0.504023730039738,"['Li', 'O', 'P', 'V']"
mp-1177734,Li3Cr(PO4)2,4,False,-0.7238321377790142,-0.015719249717323,-0.8682128617659177,False,-0.6673364960544298,2.423356288105321,"['Cr', 'Li', 'O', 'P']"
mp-761055,Li9V3P8O29,4,False,-0.8010968801013958,-0.0418168181566594,-0.4553194155944076,False,-0.7525753196884004,2.148168088204766,"['Li', 'O', 'P', 'V']"
mp-762834,LiTi2Co3O10,4,True,-0.1116248120877922,-0.0970094668896867,-0.7372623985163768,False,0.2460873960052252,-0.7264451326838872,"['Co', 'Li', 'O', 'Ti']"
mp-1103949,Cs2LiI3,3,False,0.3967852299825287,1.2421764228072916,1.6832221724477334,True,0.1492146655174016,0.3390563105282183,"['Cs', 'I', 'Li']"
mp-1177983,Li2FeTeO6,4,True,0.2945352889920302,0.3073167429119807,-0.8682128617659177,False,0.6386886587025193,-0.9392095501888572,"['Fe', 'Li', 'O', 'Te']"
mp-1176679,LiFeSnO4,4,True,-0.0077185984147199,0.1199547796805369,0.7704283797553537,True,0.858426156674511,-0.3026752054256425,"['Fe', 'Li', 'O', 'Sn']"
mp-760342,KLiH2WO5,5,False,-0.0232320975344157,0.1535978465519192,2.6234383734214286,True,-0.0164304689077683,1.973083553627171,"['H', 'K', 'Li', 'O', 'W']"
mp-976239,LiMg,2,False,2.1168157617863623,1.1459138260156094,-0.8682128617659177,False,-1.6450564683222262,-0.8901179993913325,"['Li', 'Mg']"
mp-1199646,LiZn2(BH4)5,4,False,1.936857674637178,0.953954478374938,2.674288320629498,True,-1.7696365089821031,2.4402645306186272,"['B', 'H', 'Li', 'Zn']"
mp-850951,Li3MnV(P2O7)2,5,True,-0.7980736912392729,-0.1212727965453122,0.5792163279369961,True,-0.651131457598314,0.4007445456808252,"['Li', 'Mn', 'O', 'P', 'V']"
mp-766535,Li12V3FeP4(CO7)4,6,True,-0.4734551641417176,-0.013123403356234,0.954463208665516,True,-0.6965858764282229,0.3758330349961706,"['C', 'Fe', 'Li', 'O', 'P', 'V']"
mp-1174913,Li7Mn2(CoO4)3,4,True,0.1943349275546652,0.2303954677854819,-0.8682128617659177,False,0.1861971288775503,-0.6105872659796975,"['Co', 'Li', 'Mn', 'O']"
mp-781691,Li6Cr5O12,3,False,-0.2943995105691201,-0.0412750688127246,-0.8682128617659177,False,0.0014445557158635,0.0233768284440698,"['Cr', 'Li', 'O']"
mp-1190441,LiSbF4,3,False,-0.9638221162396828,0.6223859617605961,2.6086776697045724,True,0.383140609183012,-0.3299643210598305,"['F', 'Li', 'Sb']"
mp-756881,Li5V2Ni5O12,4,True,0.0853600357361421,0.159023710106046,-0.0206911717480775,False,0.6855360132175254,-0.6134875944054488,"['Li', 'Ni', 'O', 'V']"
mp-1205129,Na3LiTi2Si4(HO4)4,6,False,-0.8209002747681573,0.0052374933142122,1.5424538099369811,True,-0.6832387304552011,0.6735041715131306,"['H', 'Li', 'Na', 'O', 'Si', 'Ti']"
mp-1029517,Li7BiN4,3,False,1.7253286541117558,-0.7076033666473998,-0.0995052044380799,False,0.172692139616029,1.7629134069096346,"['Bi', 'Li', 'N']"
mp-1235565,LiSi2(AgO)8,4,False,0.7470831966465541,0.5891374752819611,-0.8682128617659177,False,1.552176766143353,-0.4055373925233062,"['Ag', 'Li', 'O', 'Si']"
mp-562137,KLiCO3,4,False,-0.23741176856075,0.1650213945570164,2.212237668501852,True,-1.0635971401758932,-0.2967260756513566,"['C', 'K', 'Li', 'O']"
mp-768593,Li3Fe2P2(CO7)2,5,True,-0.2268080777872108,-0.0503476897235024,-0.8682128617659177,False,-0.741773290062104,0.3682061258443647,"['C', 'Fe', 'Li', 'O', 'P']"
mp-1210941,LiMg4SnO8,4,False,-0.3201197512721281,0.3761401214908255,-0.8682128617659177,False,-0.0706284529842769,-0.3149492080685924,"['Li', 'Mg', 'O', 'Sn']"
mp-754737,Li5Nb2V5O12,4,False,-0.4646919071075919,-0.210344608436638,-0.8682128617659177,False,0.6164994395132207,-0.5533285012292515,"['Li', 'Nb', 'O', 'V']"
mp-555486,LiEu(PO3)4,4,False,-0.9171970184807328,-0.2060116268697317,-0.8682128617659177,False,-0.3007543329382579,0.1413099887908266,"['Eu', 'Li', 'O', 'P']"
mp-766208,Ba3LiTi5Nb3O21,5,False,-1.5065720833102207,-0.4531029794220782,0.5689921707753212,True,0.7533032733664593,1.2653693437670277,"['Ba', 'Li', 'Nb', 'O', 'Ti']"
mp-1174940,Li7Mn2(CoO4)3,4,True,0.0994836484062276,0.2053804876950248,-0.3715625784487608,False,0.2100247916199719,-0.6160865615484931,"['Co', 'Li', 'Mn', 'O']"
mp-1211286,Li3Y2(BO3)3,4,False,-1.2249711353440196,-0.2062805632766174,2.3767044085396667,True,-0.046438217553513,0.7161930509943402,"['B', 'Li', 'O', 'Y']"
mp-753081,Li3(CuO)4,3,False,0.7415243060313483,0.6287098102557583,-0.8682128617659177,False,0.2375300210340326,-0.842192599042685,"['Cu', 'Li', 'O']"
mp-1080576,LiB,2,False,2.6061151920980428,0.8140492059055016,-0.8682128617659177,False,-2.250816516286072,-0.3562173906679026,"['B', 'Li']"
mp-777683,LiFeF3,3,True,-0.8118045516514879,0.3891936890737466,1.26409943846911,True,-0.1719428403430012,1.3924981933390828,"['F', 'Fe', 'Li']"
mp-677039,Li5TiAs3,3,False,1.231335778121628,-0.3607748226780968,-0.4693353131604139,False,-0.4577141047465591,-0.2768938748193139,"['As', 'Li', 'Ti']"
mp-759278,Li2Cu(PO3)4,4,False,-0.4570690687876336,0.0597951924439142,-0.783982057069729,False,-0.7767160728279986,1.6752393772474057,"['Cu', 'Li', 'O', 'P']"
mp-1176946,Li6MnV3(PO4)6,5,True,-0.7428286370131022,-0.1014411901722774,-0.5030547188989203,False,-0.5478416952481098,1.4419203960944091,"['Li', 'Mn', 'O', 'P', 'V']"
mp-20567,LiGa2Ru,3,False,1.7648680258285578,-1.6731877167654676,-0.8682128617659177,False,2.570717018694684,-1.0818723669295776,"['Ga', 'Li', 'Ru']"
mp-753399,Li3SiNi3O8,4,True,0.1586831533128226,0.2637944128953763,-0.6099682563710113,False,0.3801364415679657,-0.4542791244029145,"['Li', 'Ni', 'O', 'Si']"
mp-25398,Li2PWCO7,5,False,-0.2891544199238828,-0.1346656490055708,1.71870202908825,True,0.1589292866820287,-0.3899657758065803,"['C', 'Li', 'O', 'P', 'W']"
mp-35822,Li4SiO4,3,False,-0.737774078847809,0.2850518460718235,2.682413478638776,True,-0.9728538139577042,-0.7376107784328296,"['Li', 'O', 'Si']"
mp-1212077,Li2WO12,3,False,1.561157005968526,0.4774642815942777,-0.8562282537022318,False,-0.557346738744332,1.3241121586108036,"['Li', 'O', 'W']"
mp-1202263,Li4CaB10(HO5)4,5,False,-0.7192968101267769,-0.0568590545230611,2.4392681252111124,True,-0.9497531096723272,0.819036633117904,"['B', 'Ca', 'H', 'Li', 'O']"
mp-1079781,LiCaAl3,3,False,2.3646795381637467,0.4434783144890876,-0.8682128617659177,False,-1.2081803085003815,-0.6070376419696555,"['Al', 'Ca', 'Li']"
mp-19408,LiV2O5,3,False,-0.5004198797871967,-0.2186467981673302,-0.036061262315629,False,-0.4163764808249823,-0.0803318712498024,"['Li', 'O', 'V']"
mp-768667,Li5Fe2P2(CO7)2,5,True,-0.3695027280342335,-0.0099469564203383,-0.8682128617659177,False,-0.6735028384188279,0.3569849417574942,"['C', 'Fe', 'Li', 'O', 'P']"
mp-1177863,Li2Ti3FeO8,4,True,-1.0686035137776395,-0.3089937829908231,-0.864759669611975,False,-0.0387156931419086,0.5348285011711069,"['Fe', 'Li', 'O', 'Ti']"
mp-755283,Li3FePCO7,5,True,-0.3690268421611701,0.0246933085240454,1.8125476040954192,True,-0.722492709726371,0.4256508801467073,"['C', 'Fe', 'Li', 'O', 'P']"
mp-768256,Li4Bi2C4SO16,5,False,0.0325378562815301,0.0897614709029997,0.4228070362583821,True,-0.0269414896367871,0.7827792171418688,"['Bi', 'C', 'Li', 'O', 'S']"
mp-32383,Li2NiP2O7,4,True,-0.5651377072694947,0.0583052118876375,1.9220341082704488,True,-0.4726606450821743,0.3152389019808083,"['Li', 'Ni', 'O', 'P']"
mp-756022,LiV6O7F5,4,False,-0.8059768174177018,-0.2103245240638158,-0.2090594182631877,False,0.1557332434690704,-0.6126558681467738,"['F', 'Li', 'O', 'V']"
mp-1244727,Li3Mn3(PO4)4,4,True,-0.5101057224774813,-0.0916205284688734,-0.3578175194830644,False,-0.5040783324829815,0.5715333296514225,"['Li', 'Mn', 'O', 'P']"
mp-977188,Li3Dy,2,False,2.405504574349853,-0.6660791206505707,-0.8682128617659177,False,-0.3374995467545281,-0.6965117173966396,"['Dy', 'Li']"
mp-758063,LiTiP2O7,4,False,-0.9286951221666302,-0.1640572509786595,-0.6770008099475602,False,-0.6443172894960192,0.3359666704348009,"['Li', 'O', 'P', 'Ti']"
mp-1175510,Li9Mn2Co5O16,4,True,0.1574672684553834,0.217144414021122,-0.8682128617659177,False,0.2831363396566067,-0.4074778738879673,"['Co', 'Li', 'Mn', 'O']"
mp-850231,Li2TiFe3O8,4,True,-0.190299982191517,-0.1011741984696206,-0.8682128617659177,False,0.1052548659359486,-0.7997343396755986,"['Fe', 'Li', 'O', 'Ti']"
mp-558731,Li2TeS3,3,False,1.1496143543198951,0.9049461340576634,0.2138550561197662,True,-0.3483450072828459,0.1733587181458396,"['Li', 'S', 'Te']"
mp-887412,Li6MnV3(PO4)6,5,True,-0.743090536837914,-0.1015102606050873,-0.4690644745601039,False,-0.5427836313777757,1.4350263463985518,"['Li', 'Mn', 'O', 'P', 'V']"
mp-1100715,Li9Mn2Co5O16,4,True,0.1325758816704442,0.2105798473601422,-0.0453374843762221,False,0.3119330697984704,-0.415957221557567,"['Co', 'Li', 'Mn', 'O']"
mp-1147723,Li4Zn(PS4)2,4,False,1.0047942300565151,0.7817845241969517,0.966854074629666,True,-1.0461119046756615,1.4697916001674385,"['Li', 'P', 'S', 'Zn']"
mp-759334,LiCuPO4,4,False,-0.1655557734029013,0.2012232470351568,-0.8682128617659177,False,-0.6578501627579965,2.202546339090687,"['Cu', 'Li', 'O', 'P']"
mp-1176857,Li7V3P8O29,4,False,-0.7812451361892458,-0.0712804965858913,-0.2628885900746588,False,-0.7837334074840847,2.157697749608852,"['Li', 'O', 'P', 'V']"
mp-1178103,Li(FeO2)2,3,True,0.3665720791290117,0.0337817839457163,-0.6581098175759873,False,0.164528404648781,-1.0190151786105244,"['Fe', 'Li', 'O']"
mp-754922,LiV2O4,3,False,-0.498043141301008,-0.2451324742448574,-0.5647382101193601,False,0.0164135319326004,-1.0186210206058626,"['Li', 'O', 'V']"
mp-1222618,Li2ZnCdP2,4,False,1.5195747525486514,-0.5651002756551768,-0.1469696691422827,False,0.226557603855474,-0.9406988765880192,"['Cd', 'Li', 'P', 'Zn']"
mp-776367,Li4V3Ni3(WO8)2,5,True,-0.1879584774343664,-0.1409418794996112,-0.1678919510161758,False,1.1206720339477816,-0.3717069684545163,"['Li', 'Ni', 'O', 'V', 'W']"
mp-1218231,SrLiY2(BO3)3,5,False,-1.4929356394285307,-0.3272810861072441,1.9237268495223825,True,-0.0481493625471735,0.5169977190490297,"['B', 'Li', 'O', 'Sr', 'Y']"
mp-780764,LiCuP4O11,4,False,-0.3690549410730455,0.0402231292983242,-0.635562504100239,False,-0.6600247778600895,1.332180934321587,"['Cu', 'Li', 'O', 'P']"
mp-559627,LiP3PbO9,4,False,-0.6420265762200468,-0.0066872219542068,2.35463106261446,True,0.2022344956734749,-0.1707659538594594,"['Li', 'O', 'P', 'Pb']"
mp-1177781,Li2VFe(P2O7)2,5,True,-0.7206677949445937,-0.1324451526949698,0.4208434564061404,True,-0.5819984085511831,0.3218612629844642,"['Fe', 'Li', 'O', 'P', 'V']"