material_id,formula_pretty,n_elements,contains_transition_metal,formation_energy_per_atom,energy_per_atom,band_gap,is_semiconductor,density,volume,elements
mp-756849,LiFeF4,3,True,-0.9244508176984396,0.4228465425613217,1.2844123334923063,True,-0.0934376240763129,-1.0538466770725448,"['F', 'Fe', 'Li']"
mp-776715,Li3Fe2F7,3,True,-0.9280260654967466,0.4220228384444702,1.7466661145701845,True,-0.6405625534537994,0.5851881276768929,"['F', 'Fe', 'Li']"
mp-777446,Li3Mn2FeO6,4,True,-0.0664716230934228,0.0170848011075564,-0.5979159386572479,False,0.3506595861540637,-0.921197279009229,"['Fe', 'Li', 'Mn', 'O']"
mp-27005,LiMo2(PO4)3,4,False,-0.5817312830681911,-0.2140576066531422,0.0928579114315922,True,-0.3149902650561138,0.1764094903963925,"['Li', 'Mo', 'O', 'P']"
mp-759570,LiV5F11,3,False,-1.064338282026012,0.090968105900104,0.6539000719722824,True,-0.421988179497516,1.655436598657014,"['F', 'Li', 'V']"
mp-780300,Li2VP4(H2O3)6,5,False,-0.0029775590734117,0.2490165192813289,0.9713229115347692,True,-1.0820665827951534,0.959560026950794,"['H', 'Li', 'O', 'P', 'V']"
mp-865731,Li2HgPd,3,False,1.7091592685205783,1.3143785796384313,-0.8682128617659177,False,3.5159046932004974,-1.0672875500300143,"['Hg', 'Li', 'Pd']"
mp-769524,Li11Nb4(Ni3O8)3,4,True,-0.1416178823909042,0.0979640090225386,-0.0292225876578202,False,0.8083962371871465,0.0771837952123897,"['Li', 'Nb', 'Ni', 'O']"
mp-768480,Li24Ti5Cr7O36,4,False,-0.6259385234838103,0.0398459696093908,-0.0348424886142373,False,-0.1878046853189066,0.6218579422111924,"['Cr', 'Li', 'O', 'Ti']"
mp-1205167,Na3LiY3P3CO15F2,7,False,-1.2654750854276289,-0.1315683225260634,2.191112257677727,True,-0.1514456066625535,2.7108558605526087,"['C', 'F', 'Li', 'Na', 'O', 'P', 'Y']"
mp-1185248,LiYPd2,3,False,1.425541423749345,-3.0628597014629024,-0.8682128617659177,False,2.102058372909049,-1.0233904079707488,"['Li', 'Pd', 'Y']"
mp-1020725,Sr4Li2B12O23,4,False,-1.1505103341194332,-0.2121741837617839,2.4343930304055448,True,-0.2685400762071672,1.2305199405266798,"['B', 'Li', 'O', 'Sr']"
mp-1185277,K8Li31Al8O32,4,False,-0.4581495148080279,0.475767126079026,-0.8682128617659177,False,-0.9823504780619012,1.4005514825787977,"['Al', 'K', 'Li', 'O']"
mp-759753,Li2VCr(P2O7)2,5,False,-0.8018094618407913,-0.169446891909191,0.622144246086019,True,-0.5735792690984025,1.0725497482297497,"['Cr', 'Li', 'O', 'P', 'V']"
mp-758152,Li4Ti3Mn3(TeO8)2,5,True,-0.5280370137789796,-0.0954084782125138,-0.6925740294653442,False,0.3592769411238787,0.6572858126498763,"['Li', 'Mn', 'O', 'Te', 'Ti']"
mp-1176567,LiV3OF11,4,False,-1.075212852772771,0.2548887862263844,-0.8682128617659177,False,-0.5550118707804197,0.0251403822379426,"['F', 'Li', 'O', 'V']"
mp-774353,Li3Ti(NiO3)2,4,True,-0.1981992846903028,0.1597766495215664,-0.8682128617659177,False,0.3616771566488754,-0.6077225003145356,"['Li', 'Ni', 'O', 'Ti']"
mp-779534,Li9V6(P8O29)2,4,False,-0.6792343664103476,-0.09213741834127,-0.7241944360514536,False,-0.805641759866887,2.136013354816697,"['Li', 'O', 'P', 'V']"
mp-1222529,Li4GeS4,3,False,0.7595981059383171,0.8102179467935822,0.8382734491328305,True,-0.9897282233904544,0.6930827576874529,"['Ge', 'Li', 'S']"
mp-1174507,Li4MnCo2O7,4,True,0.1628231675811585,0.2200689184380955,-0.422683364257139,False,0.2514171013751599,-0.5116736059483746,"['Co', 'Li', 'Mn', 'O']"
mp-1176164,Li9Mn2Co5O16,4,True,0.2080491191535553,0.2304842867093237,-0.8682128617659177,False,0.2565006587725937,-0.3994776573834037,"['Co', 'Li', 'Mn', 'O']"
mp-756731,Li4Ti2Fe3Sb3O16,5,True,-0.2921065217845262,0.0069268610005246,-0.8682128617659177,False,0.5877599871468107,0.6519740683850237,"['Fe', 'Li', 'O', 'Sb', 'Ti']"
mp-1147616,Li6Zn3(PS4)4,4,False,1.070444425818883,0.7894522900085098,0.7908089844286286,True,-0.9579775529325196,5.998998923080482,"['Li', 'P', 'S', 'Zn']"
mp-550498,Li4CO4,3,False,-0.0717779434199272,0.3380792896203212,2.651605587853595,True,-1.253079874040389,-0.9731010479364448,"['C', 'Li', 'O']"
mp-1173936,Li3Mn2CoO6,4,True,-0.0109503029300091,0.06404506719648,-0.8682128617659177,False,0.3298404408351442,-0.9153832253784115,"['Co', 'Li', 'Mn', 'O']"
mp-663540,Li2U(MoO5)2,4,False,2.902551294541221,0.6353077241787691,-0.8682128617659177,False,0.2595084725774647,-0.5385280856679986,"['Li', 'Mo', 'O', 'U']"
mp-1096482,LiLa2Ge,3,False,4.07813455514065,1.4243818998982298,-0.8054460161442402,False,-2.2140171474050367,2.6471781477535825,"['Ge', 'La', 'Li']"
mp-760041,Li3CoPCO7,5,True,-0.3183292278402249,0.06789544812294,0.1665937203657946,True,-0.5509619583056605,0.3001424590269639,"['C', 'Co', 'Li', 'O', 'P']"
mp-758224,Li3Sn2(PO4)3,4,False,-0.5448805158081982,0.0985605262308533,1.1269196874124554,True,-0.4170248281024628,2.093427242239084,"['Li', 'O', 'P', 'Sn']"
mp-758569,Li3Fe2(SiO4)2,4,True,-0.5747794017270846,-0.0268390091339452,0.0583259898921572,True,-0.4864009602366824,-0.2336264071696618,"['Fe', 'Li', 'O', 'Si']"
mp-760017,Li2TiO3,3,False,-0.9375455815694632,0.007244845194203,-0.8681451521158406,False,-0.2280086714739027,-0.775114200953853,"['Li', 'O', 'Ti']"
mp-1195827,SrLiAlF6,4,False,-2.091252065095267,0.3801773508938581,4.090367942346612,False,-0.1817110773099452,0.0604782449459963,"['Al', 'F', 'Li', 'Sr']"
mp-760033,Li7Mn4(PO4)6,4,True,-0.6535835878577673,-0.0578454218344854,-0.7461323626765066,False,-0.5655784641743303,0.1453624334236175,"['Li', 'Mn', 'O', 'P']"
mp-567371,Sr3Li4(GeN3)2,4,False,1.3790061562194402,0.5099478777044886,0.5221370929218143,True,0.384024725755699,-0.661606005264521,"['Ge', 'Li', 'N', 'Sr']"
mp-807720,LiCoP2O7,4,True,4.705705842987798,1.341995839586132,-0.8682128617659177,False,-0.5338326031534445,0.319811425968915,"['Co', 'Li', 'O', 'P']"
mp-752545,LiMn2F7,3,True,-0.9027557555504616,0.3249081575710512,0.4582191832488217,True,-0.5391428905991458,-0.4245371075379109,"['F', 'Li', 'Mn']"
mp-757400,Li6V3P8O29,4,False,-0.7514459567817829,-0.0819026733391118,-0.3526715860771872,False,-0.7784689847397205,2.1216350634706083,"['Li', 'O', 'P', 'V']"
mp-773009,Li5Mn5(PO4)6,4,True,-0.5896679085901927,-0.1153597731003915,-0.4887679827326053,False,-0.4358144449516254,0.1222980603116718,"['Li', 'Mn', 'O', 'P']"
mp-11830,LiCeSn,3,False,1.7739284523795378,0.8599803785609638,-0.8682128617659177,False,1.3446859831496425,-1.0169130411252694,"['Ce', 'Li', 'Sn']"
mp-1100564,Li9Mn2Co5O16,4,True,0.3524420905093156,0.2685648201095504,-0.8682128617659177,False,0.2392541503392832,-0.3942148366942389,"['Co', 'Li', 'Mn', 'O']"
mp-569174,Li2MgSi,3,False,1.9563984710895537,1.2659728181202037,-0.8682128617659177,False,-1.3622221122545937,0.2448666008790377,"['Li', 'Mg', 'Si']"
mp-36791,LiNdS2,3,False,-0.0485939793889477,0.4412374452079526,0.442307415480651,True,0.1421300947868324,-0.7170805653011859,"['Li', 'Nd', 'S']"
mp-1100549,Li9Mn7O16,3,True,-0.185759949165413,0.0346579789445631,-0.2665449111788335,False,0.0946750131259987,-0.3719658287143,"['Li', 'Mn', 'O']"
mp-1238788,Li(CrS2)2,3,False,1.1742058604048926,0.2829365245725389,-0.8682128617659177,False,-0.6223945245810113,0.3886953858876819,"['Cr', 'Li', 'S']"
mp-753580,LiTiSiO4,4,False,-1.1720710355445942,-0.2219862295638996,-0.8682128617659177,False,-0.2173096069418854,-0.4156747811821648,"['Li', 'O', 'Si', 'Ti']"
mp-687200,LiFe(PO3)5,4,True,-0.4950285197140567,-0.0646368729997625,-0.8657753143631342,False,-0.9007088693386847,2.4130767486016302,"['Fe', 'Li', 'O', 'P']"
mp-1177704,Li3Fe3O8,3,True,0.4483506809552989,0.1913267631051639,-0.83503513322803,False,-0.110758933407734,-0.3918319321443822,"['Fe', 'Li', 'O']"
mp-22994,LiIO3,3,False,0.6487943140785462,0.6492650973256744,1.6063040099598962,True,0.3677689796975369,-0.4270380609466921,"['I', 'Li', 'O']"
mp-753149,LiMn(PO3)3,4,True,-0.6263615551877579,-0.1154931304995052,2.179533907514505,True,-0.6502445945289591,0.8245168779500576,"['Li', 'Mn', 'O', 'P']"
mp-1040009,LiMg30BiO32,4,False,-1.048778544671549,0.2962976248991672,1.5166564332575208,True,0.040435388472365,0.5952461439306965,"['Bi', 'Li', 'Mg', 'O']"
mp-1026819,BaLiMg14,3,False,2.2785239535972828,1.6563078485785707,-0.8682128617659177,False,-1.1758993571782848,-0.07221897647611,"['Ba', 'Li', 'Mg']"
mp-757327,Li7Ti2P7O24,4,False,-0.8373609640739635,-0.0299099245780561,-0.7159338587420211,False,-0.7147531307369467,1.426209832699696,"['Li', 'O', 'P', 'Ti']"
mp-753940,KLiMnS2,4,True,0.8178198448012195,0.5660488362502912,-0.4374440679739951,False,-0.8385283544160915,-0.9210886259359125,"['K', 'Li', 'Mn', 'S']"
mp-1235292,Ba2LiLaCu3O7,5,False,0.0273755819946083,0.3518878847476754,-0.8682128617659177,False,1.6133833711789087,-0.6754156306943134,"['Ba', 'Cu', 'La', 'Li', 'O']"
mp-1176009,Li9Mn2Co5O16,4,True,0.1651726125897358,0.2191765324262867,-0.0525824169344956,False,0.2780530517893094,-0.4059628785097486,"['Co', 'Li', 'Mn', 'O']"
mp-1235234,LiMn6O5F7,4,True,-0.4819976947824617,-0.0393715187284273,-0.8682128617659177,False,0.0358215546127723,-0.5453954720576408,"['F', 'Li', 'Mn', 'O']"
mp-760009,Li5VF8,3,False,-1.24724045189281,0.5064348090696725,1.1902959198848289,True,-0.750030217723011,0.4953600410520403,"['F', 'Li', 'V']"
mp-779021,LiVP2HO8,5,False,-0.5568676951768001,-0.0544401548459357,0.0454611563774668,True,-0.5317001615211062,0.3766377763979719,"['H', 'Li', 'O', 'P', 'V']"
mp-1372888,Li5Fe3(OF5)2,4,True,-0.0896936714315933,0.5867852796481932,-0.2089917086131104,False,-0.3313650165882597,-0.6132201604897903,"['F', 'Fe', 'Li', 'O']"
mp-1175161,Li7Mn4CoO12,4,True,-0.1011542711555701,0.1034171453745976,-0.344072460517368,False,0.1635443752282344,0.0084308204323795,"['Co', 'Li', 'Mn', 'O']"
mp-777110,Li32Ti13Cr3O48,4,False,-0.9517094765589056,-0.0124265294928871,0.0822952060195299,True,-0.2518464684079567,1.2750554017292637,"['Cr', 'Li', 'O', 'Ti']"
mp-867160,LiCd2Au,3,False,1.7673193559414735,-4.75426036956924,-0.8682128617659177,False,4.075733866298816,-1.0292764403710564,"['Au', 'Cd', 'Li']"
mp-765316,Li3Ni2(CO3)4,4,True,0.2094398765642099,0.0247440194897098,-0.8682128617659177,False,-0.8799276369802086,-0.4933357072358212,"['C', 'Li', 'Ni', 'O']"
mp-1190364,Li2SnS3,3,False,0.9264714953465328,0.8042061846231089,0.0926547824813595,True,-0.172413661471409,0.0182648555338963,"['Li', 'S', 'Sn']"
mp-774464,LiCo(SO4)2,4,True,0.2373655983254569,0.2255050361628418,-0.4206520747548186,False,-0.6132424846558293,0.0715622174063846,"['Co', 'Li', 'O', 'S']"
mp-1235743,K2LiNd4Nb2O12,5,False,-1.27867818204532,-0.2191202054740442,-0.7203349859970469,False,1.105658880007584,-0.3152388012797962,"['K', 'Li', 'Nb', 'Nd', 'O']"
mp-757985,Li2CoSiO4,4,True,-0.5687821919336433,0.0769778555859339,1.0659810023428655,True,-0.4149869746699594,-0.2276926274332329,"['Co', 'Li', 'O', 'Si']"
mp-26317,LiCrPO4,4,False,-0.6382896179400387,-0.1536549060940837,0.21527695877139,True,-0.2445721248671916,-0.3660083823057247,"['Cr', 'Li', 'O', 'P']"
mp-772568,Li2Cr4O13,3,False,0.3587793587175155,0.0031496495453846,0.1862972285382966,True,-0.5547060550012678,0.8786332116658981,"['Cr', 'Li', 'O']"
mp-766462,Li2FePO5,4,True,-0.481693970266487,0.0434096598483082,0.6139513784266631,True,-0.6635253991988693,0.0182349599417783,"['Fe', 'Li', 'O', 'P']"
mp-1175316,Li7Mn5O12,3,True,-0.1722914902032818,0.0601315292386205,-0.8682128617659177,False,0.0824365779031253,-0.6002976662625281,"['Li', 'Mn', 'O']"
mp-1026816,LiMg14Cr,3,False,2.276046019175765,1.515402937958631,-0.8682128617659177,False,-1.250827988179326,-0.2203462087658309,"['Cr', 'Li', 'Mg']"
mp-1177388,Li4MnFe3(BO3)4,5,True,-0.4420421538171165,-0.1289157153595807,1.2416875442935156,True,-0.3265440434723231,0.1890091571716969,"['B', 'Fe', 'Li', 'Mn', 'O']"
mp-758373,LiCoPO4,4,True,-0.4671616259663273,-0.0040857585688397,1.2852248492932346,True,-0.45713689616304,0.7735872449754735,"['Co', 'Li', 'O', 'P']"
mp-862549,LiAcTl2,3,False,1.74314813034591,-10.868325514569127,-0.8682128617659177,False,3.561463812923973,-0.8985023666064649,"['Ac', 'Li', 'Tl']"
mp-19219,Li3VO4,3,False,-0.5817522078112681,0.1303502691499218,1.862991293403024,True,-0.7062217916121022,-0.7549976765553579,"['Li', 'O', 'V']"
mp-752888,Li2CuSiO4,4,False,-0.3741247794765097,0.2383606451913753,-0.8682128617659177,False,-0.3573696231619072,-0.7326948417184624,"['Cu', 'Li', 'O', 'Si']"
mp-1191015,LiNdSn,3,False,1.4427566261795983,0.8856826873540492,-0.8662492819136755,False,1.4382590596288771,0.5166108493751379,"['Li', 'Nd', 'Sn']"
mp-763371,LiFe2(CO3)4,4,True,0.2963145955050104,-0.1413804303733994,-0.8207483970617157,False,-1.0152475179622449,-0.4679131243188218,"['C', 'Fe', 'Li', 'O']"
mp-976333,Li2AcTl,3,False,1.8664258014117132,-7.1514761405101295,-0.8682128617659177,False,2.5630254291358,-0.956523780103116,"['Ac', 'Li', 'Tl']"
mp-774837,Li2Fe3NiO8,4,True,0.5493579473693783,0.1377350109644567,-0.8682128617659177,False,0.5679739770442451,0.2969515203578576,"['Fe', 'Li', 'Ni', 'O']"
mp-757174,LiMn2F6,3,True,-1.0518983552417198,0.2388567477896901,-0.6562816570239002,False,0.0720843859057576,-0.3775632951244312,"['F', 'Li', 'Mn']"
mp-776434,Li3LaNiO4,4,True,-0.350938238997286,0.2780435719069579,0.9253480591322676,True,0.5148848076277042,1.1587368555056956,"['La', 'Li', 'Ni', 'O']"
mp-759139,Li2VO2F,4,False,-0.7108561042699021,0.1562832815491964,0.2856949948518049,True,-0.2827308841545849,-0.5705884897725401,"['F', 'Li', 'O', 'V']"
mp-976321,Li3Pr,2,False,2.3805446968211355,-0.4856727340648094,-0.8682128617659177,False,-0.7062433703141798,-0.9503614452939292,"['Li', 'Pr']"
mp-555439,CsLi3F4,3,False,-1.1701634793814568,-0.3936866455498923,3.7495852735074497,True,-0.1556029535708359,-0.6118801949082863,"['Cs', 'F', 'Li']"
mp-756845,Li4Cr5FeO12,4,True,-0.1885719716351628,-0.1430110476177186,-0.8426863236867673,False,0.0457344712844674,-0.5656287567424919,"['Cr', 'Fe', 'Li', 'O']"
mp-756138,Li2V3SbO8,4,False,-0.4799756117889877,-0.1376780015393044,0.0444455116263062,True,0.3788693411124831,-0.3129084228013749,"['Li', 'O', 'Sb', 'V']"
mp-753288,Li3VF8,3,False,-1.067645940524132,0.5293384821233907,0.4408178031789505,True,-0.9389861027197084,-0.7809809985686632,"['F', 'Li', 'V']"
mp-34993,LiAlO2,3,False,-1.1223746799815144,0.1147731516257556,2.3632978978243577,True,-0.2286648930454712,-0.125312703599957,"['Al', 'Li', 'O']"
mp-754467,LiV2(OF)3,4,False,-0.8252325918160246,0.0102247834979318,-0.1605115991577471,False,-0.2304341065544949,-0.9371230849112092,"['F', 'Li', 'O', 'V']"
mp-1110899,K2LiSbBr6,4,False,0.4631658045141979,1.1350891484004455,0.7018385042270272,True,-0.2594973009669872,-0.2594175680266455,"['Br', 'K', 'Li', 'Sb']"
mp-20234,Li2BPt3,3,False,1.4847832394596072,-6.125271341787541,-0.8682128617659177,False,6.132783946808554,-0.3324464462469914,"['B', 'Li', 'Pt']"
mp-26741,LiCu4(PO4)3,4,False,0.0178764177186968,0.180824245338181,-0.8682128617659177,False,0.1430000858748865,0.0828603197638628,"['Cu', 'Li', 'O', 'P']"
mp-1195055,RbLi6B2O6F,5,False,-0.6782621960841116,0.3190732641999728,2.0793913350501456,True,-0.8821577657474088,0.8419752305745224,"['B', 'F', 'Li', 'O', 'Rb']"
mp-1232978,LiTi2Zn2(PO5)2,5,False,-0.5665941149177636,0.0148821943990107,-0.8682128617659177,False,-0.0707400923095018,-0.6389515752714288,"['Li', 'O', 'P', 'Ti', 'Zn']"
mp-770853,Li2CoPO4F,5,True,-0.6195844945633071,0.1479497731964678,0.9665832360293568,True,-0.285196861897381,0.9173992604275332,"['Co', 'F', 'Li', 'O', 'P']"
mp-1641494,Li4TiCo5O12,4,True,0.1236625660467473,0.1130623656506528,-0.1068855562965079,False,0.4688957759850717,-0.0266909749164986,"['Co', 'Li', 'O', 'Ti']"
mp-1175632,Li9Mn2Co5O16,4,True,0.169139295337653,0.2202226594880949,-0.5358261895363442,False,0.2567380401892032,-0.399549637089074,"['Co', 'Li', 'Mn', 'O']"
mp-673101,LiSn4(PO4)3,4,False,-0.3784537395587092,0.0815021755563619,1.340611343056484,True,0.4332222985617175,0.433729461772408,"['Li', 'O', 'P', 'Sn']"
mp-1100746,Li9Mn2Co5O16,4,True,0.2304078800693466,0.2363809278951584,-0.8682128617659177,False,0.2533881183902042,-0.3985327164369215,"['Co', 'Li', 'Mn', 'O']"
mp-1176604,LiTiSiO4,4,False,-1.1916261419415834,-0.227143467311025,-0.8682128617659177,False,-0.2272354288243028,1.2400070779604897,"['Li', 'O', 'Si', 'Ti']"
mp-2913178,Li3MnF6,3,True,-1.0683748410974157,0.4918194547339898,0.4184059090033569,True,-0.6945802982546513,-0.9026707356068808,"['F', 'Li', 'Mn']"
mp-758141,LiFeSi3O8,4,True,-0.9256612810492868,-0.1837506745972831,1.3389186018045502,True,-0.7779687336918598,-0.218775724379975,"['Fe', 'Li', 'O', 'Si']"
mp-752745,Li4MnCr(WO6)2,5,True,-0.2199184380059879,-0.14033573651186,-0.3814481873600491,False,1.328950731655948,-0.6577543754917292,"['Cr', 'Li', 'Mn', 'O', 'W']"
mp-764048,Li4Fe2Ni3Sb3O16,5,True,0.1923727695909697,0.2064119030691541,-0.4015579534330145,False,0.8500595210264279,-0.3434832429678293,"['Fe', 'Li', 'Ni', 'O', 'Sb']"
mp-758346,LiMn3Al2(HO2)6,5,True,-0.0625267644096143,0.1122360167945145,-0.5767905278331233,False,-0.3538077799536168,0.0233416384188711,"['Al', 'H', 'Li', 'Mn', 'O']"
mp-1315810,Li3Ti3VO8,4,False,-1.042706533504218,-0.2465679715386445,-0.8682128617659177,False,0.0224808524311588,-0.3679256944189943,"['Li', 'O', 'Ti', 'V']"
mp-1342805,Li5Co7O3F13,4,True,0.9232941083254964,0.7542761502375481,-0.7519553925831564,False,0.0569381516176889,-0.310233412183463,"['Co', 'F', 'Li', 'O']"
mp-10250,BaLiF3,3,False,-1.9445350882439612,0.4706144927512392,3.5764516982597367,True,1.011066792867719,-1.0547304809458435,"['Ba', 'F', 'Li']"
mp-770681,LiCr10O15,3,False,-0.2861864148101471,-0.4635108974134384,-0.7301528852582586,False,0.4861607450722081,0.4046046263465157,"['Cr', 'Li', 'O']"
mp-1185480,LiPu3,2,False,3.044206809275264,-16.623590816798202,-0.8682128617659177,False,8.701184957773123,-1.0266851132621877,"['Li', 'Pu']"
mp-556237,KLiYF5,4,False,-1.9932203629161245,0.3196820247723833,4.12307170333396,False,-0.2737177810976133,0.0818058642178953,"['F', 'K', 'Li', 'Y']"
mp-1979024,Li7Co5O12,3,True,0.3186398697398092,0.3122276328939068,-0.7632629041460685,False,0.3628447496805597,-0.042374286335404,"['Co', 'Li', 'O']"
mp-850196,Li3V4O11F,4,False,-0.4446792864677438,-0.0812374073411745,0.0867640429246325,True,-0.3782028356770422,-0.6064726384828113,"['F', 'Li', 'O', 'V']"
mp-1185414,LiSiO3,3,False,-0.4623792653741084,0.1298261437785599,-0.8682128617659177,False,-0.3758596259220593,-1.1132933109712009,"['Li', 'O', 'Si']"
mp-1097071,LiY2Co,3,True,4.625271994406259,1.158368455037729,-0.8682128617659177,False,-2.2766886953442653,2.125381009776718,"['Co', 'Li', 'Y']"
mp-559052,LiNb3(Bi2O7)2,4,False,-0.5016142676538233,-0.1371790003175848,0.9728802334865476,True,2.302464718378257,0.5561465659076441,"['Bi', 'Li', 'Nb', 'O']"
mp-586092,Li3Fe5O8,3,True,0.215265317170574,0.0058698171354678,-0.6514065622183324,False,0.6069966597747057,0.5245535913487993,"['Fe', 'Li', 'O']"
mp-893207,Li5Mn6(BO3)6,4,True,-0.2044317645043439,-0.12055777467788,-0.8676034749152219,False,-0.3956151556915454,0.9390882951909032,"['B', 'Li', 'Mn', 'O']"
mp-1222286,LiErS2,3,False,-0.0555890546315044,0.4539311155900777,-0.6342083110986932,False,0.815688848885658,-1.008186665869719,"['Er', 'Li', 'S']"
mp-25843,LiMo2(PO4)3,4,False,-0.5295760256083273,-0.2003027818507334,-0.3925525699727306,False,-0.4250409351286931,1.7403615605210665,"['Li', 'Mo', 'O', 'P']"
mp-1097024,Li(CoS2)2,3,True,1.2662002659230769,0.5160737234014697,-0.8682128617659177,False,0.0193620857078056,-0.5959766232717545,"['Co', 'Li', 'S']"
mp-977299,Li3Pu,2,False,2.615345160138788,-4.55489904486765,-0.8682128617659177,False,0.6693167164959565,-0.9708564067559612,"['Li', 'Pu']"
mp-1235084,Ba2LiTbSnO6,5,False,-0.8823974501067103,0.1432860079227765,1.3754818128463049,True,1.7634677439384954,-0.7461714158585354,"['Ba', 'Li', 'O', 'Sn', 'Tb']"
mp-758445,Li4Mn3CrCo2(PO4)6,6,True,-0.5095099050110422,-0.1209636560341996,-0.6014368404612693,False,-0.3058822658021196,0.1193058897214539,"['Co', 'Cr', 'Li', 'Mn', 'O', 'P']"
mp-765458,Li2Ni(PO3)5,4,True,-0.4702421522785668,0.0157883661692277,-0.7546637785862487,False,-0.7726645389862892,0.4890160668023374,"['Li', 'Ni', 'O', 'P']"
mp-862841,LiPm2Os,3,False,2.0002887750202567,-6.235789670884562,-0.8682128617659177,False,3.592896839934093,-0.9820238311734028,"['Li', 'Os', 'Pm']"