material_id,formula_pretty,n_elements,contains_transition_metal,formation_energy_per_atom,energy_per_atom,band_gap,is_semiconductor,density,volume,elements
mp-758709,Li3Mn5(NiO6)2,4,True,0.1179269651489258,-0.0453785979132519,-0.5262791288754418,False,0.5850995716794469,0.6433055378571092,"['Li', 'Mn', 'Ni', 'O']"
mp-867644,Li3MnV3O8,4,True,-0.4164978852821892,-0.1518929162471673,-0.6029264527629704,False,-0.0507822424686701,-0.7728183782260784,"['Li', 'Mn', 'O', 'V']"
mp-1097385,Li2CuPd,3,False,3.5859400746473185,-0.3140526432426978,-0.5382637369391279,False,-2.230258518257079,0.8769335066222819,"['Cu', 'Li', 'Pd']"
mp-759389,Li2MnF4,3,True,-1.1831264529751715,0.3714055995670848,1.7767291992045158,True,-0.5430076277889545,0.6521783266505927,"['F', 'Li', 'Mn']"
mp-753502,Li4Mn3OF11,4,True,-0.9388087688688784,0.357773316024607,-0.0053887908306021,False,-0.3023192443796878,-0.6311314443540399,"['F', 'Li', 'Mn', 'O']"
mp-849674,LiMnP2O7,4,True,-0.583714337151621,-0.1064831588592427,-0.5755040444816543,False,-0.5062735574353164,1.783702772117355,"['Li', 'Mn', 'O', 'P']"
mp-1218301,SrLiTi4CrO11,5,False,-1.4248659372848174,-0.4370893674210988,0.393217919174593,True,0.2946990699190836,1.1143749741107234,"['Cr', 'Li', 'O', 'Sr', 'Ti']"
mp-1222464,Li6Mn2N3,3,True,1.7378135970017734,0.5518033175711093,-0.8682128617659177,False,-0.9087330999169086,-0.8501802915386203,"['Li', 'Mn', 'N']"
mp-1034976,LiMg14CoO16,4,True,-0.9482909691343614,0.2818847007217701,-0.1836682994841913,False,-0.1079508527565534,-0.3535041243626307,"['Co', 'Li', 'Mg', 'O']"
mp-780202,Li2FeO2F,4,True,-0.3771797407150545,0.2739694316943024,0.2676165182811605,True,-0.0075714099468896,-0.61886376639725,"['F', 'Fe', 'Li', 'O']"
mp-1245354,Li7CrN4,3,False,1.3524281875639703,0.5324934245708338,-0.8682128617659177,False,-0.950674918160246,1.3409263432675549,"['Cr', 'Li', 'N']"
mp-759005,Li2VCrP2(HO5)2,6,False,-0.53025104554544,-0.0462756349858134,-0.8682128617659177,False,-0.4254824329524687,0.3358885173751655,"['Cr', 'H', 'Li', 'O', 'P', 'V']"
mp-772619,Li8Te2O9,3,False,-0.0829687269220386,0.507623293831671,0.7178856912953527,True,0.003625993961183,1.084071163692888,"['Li', 'O', 'Te']"
mp-1210935,Li3Dy3(TeO6)2,4,False,-0.8777130386472259,0.0706090319583645,1.533922394027238,True,1.9303896966857856,1.5237493484659408,"['Dy', 'Li', 'O', 'Te']"
mp-779341,Li3Mn4(BO3)4,4,True,-0.5430442227152065,-0.2250990541859404,-0.627572765391115,False,-0.4090886615407977,0.9424538760246356,"['B', 'Li', 'Mn', 'O']"
mp-504354,LiBi(PO3)4,4,False,-0.6503532640219649,-0.0325047376723237,2.606917218802562,True,0.1123882308082663,0.0634584016799841,"['Bi', 'Li', 'O', 'P']"
mp-771817,Li2Fe2(PO4)3,4,True,-0.4327828695436114,-0.0471920033688747,-0.8682128617659177,False,-0.5577863473063105,0.1115680411045213,"['Fe', 'Li', 'O', 'P']"
mp-779282,Li9Bi5O13,3,False,0.1823337769955116,0.5019688867893726,-0.4872783704309043,False,1.2905940118753232,3.204067848683132,"['Bi', 'Li', 'O']"
mp-768590,Li2Ni2(SO4)3,4,True,0.0632458630207508,0.2242870753118547,1.5472611950924713,True,-0.3635848807390581,0.0162250366108454,"['Li', 'Ni', 'O', 'S']"
mp-672976,LiSn(PO3)3,4,False,-0.5958342113483474,-0.0006586966791601,1.7449733733182518,True,-0.6393271225975993,1.250138587869417,"['Li', 'O', 'P', 'Sn']"
mp-1211170,LiHo6B3O14,4,False,-1.798471452594956,-0.3718400622321836,2.3782617304914453,True,2.3034718497669,2.1027136401878543,"['B', 'Ho', 'Li', 'O']"
mp-1213708,Cs2Li4UO6,4,False,-0.5144529301946965,0.2775108611463872,0.5669608812730008,True,0.9836463164364648,-0.6617032259523279,"['Cs', 'Li', 'O', 'U']"
mp-1222694,Li2BrO,3,False,1.03695220341824,1.0576448977333233,-0.8682128617659177,False,-0.8856318324046443,-1.0212081960120605,"['Br', 'Li', 'O']"
mp-6765,Li3AlGeO5,4,False,-0.724445573524818,0.2209043375058705,1.9729517651285944,True,-0.4501509496330747,0.0110845141743043,"['Al', 'Ge', 'Li', 'O']"
mp-760187,LiVCrP2(O4F)2,6,False,-0.8278212836173877,-0.1281411698253675,-0.1820432678823362,False,-0.3911015229558618,0.8085732561513383,"['Cr', 'F', 'Li', 'O', 'P', 'V']"
mp-1646935,Li2Fe(CoO3)2,4,True,0.4371217800231369,0.1705254376067926,-0.2173877052226976,False,0.3017041234830349,-0.5908095234179814,"['Co', 'Fe', 'Li', 'O']"
mp-857348,LiMnPO4,4,True,-0.6563280789161018,-0.1380590462615226,1.25448466815813,True,-0.3609154276935791,0.6357478569067077,"['Li', 'Mn', 'O', 'P']"
mp-1247124,Li2CoN2,3,True,1.9299819093248547,0.4445167065968416,-0.8682128617659177,False,0.2425439347380699,-1.1205962543041836,"['Co', 'Li', 'N']"
mp-26248,Li4Cu(PO4)2,4,False,-0.5330238352015966,0.1960118511531924,-0.8682128617659177,False,-0.6349213398210908,-0.2753026616922573,"['Cu', 'Li', 'O', 'P']"
mp-780329,Li2MnV(P2O7)2,5,True,-0.7458604834020215,-0.1482155638320476,-0.6279113136415017,False,-0.5779263382669394,0.3155585921157547,"['Li', 'Mn', 'O', 'P', 'V']"
mp-759054,Li2Cu2Si2O7,4,False,-0.2974668845451529,0.1769004359601794,-0.7420697836718674,False,-0.1564808460488728,0.4480410704386752,"['Cu', 'Li', 'O', 'Si']"
mp-673145,LiCu4(PO4)3,4,False,0.0313921749645617,0.1843887349417811,-0.8302954577226174,False,0.0565125479907615,0.1273917296436844,"['Cu', 'Li', 'O', 'P']"
mp-756543,Li4FeCo5O12,4,True,0.457972129786796,0.1936521123129313,-0.8682128617659177,False,0.5065510155065072,-0.6314965601885633,"['Co', 'Fe', 'Li', 'O']"
mp-764983,Li3VCr3O8,4,False,-0.4642115520779367,-0.1959924887134958,0.1553539184529598,True,0.1476510704309147,-0.3790096270191569,"['Cr', 'Li', 'O', 'V']"
mp-757604,LiCr(SiO3)2,4,False,-1.0448964342090614,-0.2484941143388163,1.2940271038032864,True,-0.2769254812739575,1.1890259043136784,"['Cr', 'Li', 'O', 'Si']"
mp-1174343,Li5Mn2CoO8,4,True,0.0041081803019694,0.1872832709929524,-0.8682128617659177,False,0.0477823929267215,-0.8222125110660521,"['Co', 'Li', 'Mn', 'O']"
mp-762922,Li2VO2F,4,False,-0.7151262721734966,0.1551571168200508,0.3238832374954153,True,-0.2792248010773815,-0.5716381051042604,"['F', 'Li', 'O', 'V']"
mp-1176015,Li9Mn2Co5O16,4,True,0.1820998062711835,0.2236407148467058,-0.834899713927876,False,0.3107833088431091,-0.4156219876971691,"['Co', 'Li', 'Mn', 'O']"
mp-1280664,Li2TiCrO4,4,False,-0.7493324417510847,-0.1516108607964038,-0.8682128617659177,False,0.0776264466411666,-0.3564035315529874,"['Cr', 'Li', 'O', 'Ti']"
mp-779437,Li12Mn3V5(PO4)12,5,True,-0.749643641537512,-0.1035217907353656,-0.8682128617659177,False,-0.5420088902932708,1.4404913296115924,"['Li', 'Mn', 'O', 'P', 'V']"
mp-1175175,Li7Mn4CoO12,4,True,-0.074403967183184,0.1104719613696011,-0.5394148009904423,False,0.1344946864116697,-0.6080100925251414,"['Co', 'Li', 'Mn', 'O']"
mp-1176519,LiVO2,3,False,-0.5169575137836088,-0.112787041886276,-0.8682128617659177,False,0.0862742617448315,-0.7937519119938172,"['Li', 'O', 'V']"
mp-755639,Li4MnFe3(BO3)4,5,True,-0.4406099527970481,-0.1285380032156415,1.346908340513675,True,-0.3234189189399203,-0.5255903281247907,"['B', 'Fe', 'Li', 'Mn', 'O']"
mp-976264,Li3Nd,2,False,2.388274048505898,-0.4846536172354937,-0.8682128617659177,False,-0.6514642455362645,-0.9530895895310842,"['Li', 'Nd']"
mp-760206,Li4Mn3NiO8,4,True,-0.0546015386574662,0.064811324991069,-0.719522470196119,False,0.3474795480819812,-0.8122168128895014,"['Li', 'Mn', 'Ni', 'O']"
mp-849752,Li4Cu3Sn(PO4)4,5,False,-0.292654105379954,0.1686326350069798,-0.8682128617659177,False,0.07041720240343,-0.3464441010086698,"['Cu', 'Li', 'O', 'P', 'Sn']"
mp-773925,Li4V3NiO8,4,True,-0.3226263914031211,-0.0016251013500795,-0.8682128617659177,False,0.213210528093652,-0.8053381553595705,"['Li', 'Ni', 'O', 'V']"
mp-1016165,LiMn8O16,3,True,0.1178850382349951,-0.2217872626124848,-0.8682128617659177,False,0.1703842267693052,0.443856862687831,"['Li', 'Mn', 'O']"
mp-1174410,Li4Mn3O7,3,True,-0.1676688003343338,0.0488240728404475,-0.2603833330217971,False,0.0754824647903268,-0.4820576147919622,"['Li', 'Mn', 'O']"
mp-774393,Li2MnFe(BO3)2,5,True,-0.4889829881635356,-0.1496611992447431,1.1515660000406007,True,-0.349709236577931,-0.1583190606759434,"['B', 'Fe', 'Li', 'Mn', 'O']"
mp-6565,Li3Sc2(PO4)3,4,False,-1.2621707953324977,-0.1580076267616593,2.35259977311214,True,-0.7375633059877607,1.6277505785803823,"['Li', 'O', 'P', 'Sc']"
mp-1235109,Ba2Li(NiO2)2,4,True,0.3539916270748144,0.4360919233961799,-0.4191624624531182,False,1.2077032924867517,-0.8385406857687877,"['Ba', 'Li', 'Ni', 'O']"
mp-774639,Li2MnSiO4,4,True,-0.7752862762998084,-0.0510572694141476,1.2636254709185686,True,-0.5077245506050991,-0.2064871413207365,"['Li', 'Mn', 'O', 'Si']"
mp-1100657,Li9Mn2Co5O16,4,True,0.3194301368195184,0.2598586289889744,-0.8682128617659177,False,0.2591444848769527,-0.40027863160541,"['Co', 'Li', 'Mn', 'O']"
mp-1097030,Li2O2,2,False,0.6513010471088901,0.7157669979740771,-0.8682128617659177,False,-0.8359082506281394,-1.1941650891755555,"['Li', 'O']"
mp-1096001,Li2CdGa,3,False,3.1926958297604857,-0.2538662305203136,-0.8662492819136761,False,-2.282538926344586,1.537265291907024,"['Cd', 'Ga', 'Li']"
mp-769578,Li4V2C4SO16,5,False,-0.1327377470469171,-0.0654552507956457,-0.435886746022216,False,-0.8288940426041551,0.5403631654549138,"['C', 'Li', 'O', 'S', 'V']"
mp-761780,LiCoPO4,4,True,-0.3916966818916849,0.0158164935726456,0.9213531897777052,True,-0.3126337599529347,-0.2984556323413475,"['Co', 'Li', 'O', 'P']"
mp-20754,LiCeSn2,3,False,1.6188649260655303,0.8148962033130405,-0.8682128617659177,False,1.8196183072820995,-0.6682685815390657,"['Ce', 'Li', 'Sn']"
mp-771986,Li4Fe3O8,3,True,0.3013435277247753,0.213343545850798,-0.772268287606353,False,-0.0018872343063827,-0.824484266332805,"['Fe', 'Li', 'O']"
mp-865924,LiZrAu2,3,False,1.5228866297925705,-7.221492800479928,-0.8682128617659177,False,5.173174110468306,-1.032652325508726,"['Au', 'Li', 'Zr']"
mp-26477,LiCuPO4,4,False,-0.2426483458638641,0.1808917429948671,-0.7502626513312226,False,-0.3361933290624034,-0.9938684276000808,"['Cu', 'Li', 'O', 'P']"
mp-1174631,Li4MnCo2O7,4,True,0.1368132791290028,0.2132093710748227,-0.3947869884252822,False,0.2610351409606917,-0.5141959529156367,"['Co', 'Li', 'Mn', 'O']"
mp-1177993,Li2Mn3SnO8,4,True,-0.1196706120288329,-0.0450365723730166,-0.4114435623443034,False,0.4586786957098487,0.6012231996661581,"['Li', 'Mn', 'O', 'Sn']"
mp-504948,LiScGeO4,4,False,-0.992408144661197,-0.0765626005629932,1.8627204548027148,True,0.0443200856114747,-0.2906679330906881,"['Ge', 'Li', 'O', 'Sc']"
mp-752818,Li4Co7O3F13,4,True,-0.3427858175990409,0.4028153097106644,-0.7170172131432582,False,0.0194925430404631,-0.305298220074437,"['Co', 'F', 'Li', 'O']"
mp-558431,LiCu(PO3)3,4,False,-0.4696751424286424,0.0307553718957879,-0.3844274119634513,False,-0.4527232968212866,0.6801079993313967,"['Cu', 'Li', 'O', 'P']"
mp-776105,Li2Mn3F8,3,True,-1.0585430444250614,0.21919080203146,1.5956735948977565,True,-0.5743291585439756,-0.1415341014809532,"['F', 'Li', 'Mn']"
mp-1174535,Li7Mn2(CoO4)3,4,True,0.0801124455928154,0.2002717505535108,-0.344207879817522,False,0.2676628955415406,-0.6289988497227689,"['Co', 'Li', 'Mn', 'O']"
mp-530613,Li4Mg23B54,3,False,2.003307843108409,0.2683695679138204,-0.8682128617659177,False,-0.8285621761127694,0.996406784524524,"['B', 'Li', 'Mg']"
mp-1192111,LiEr(WO4)2,4,False,-0.7656321274405395,-0.4034839423217265,1.7016391972687654,True,2.4299722290696724,-0.3679442941609618,"['Er', 'Li', 'O', 'W']"
mp-1235709,Ba2LiV2(Si2O7)2,5,False,-1.162545699547749,-0.2171594490986181,-0.6843134521559109,False,0.0776391836409546,-0.3454435703876715,"['Ba', 'Li', 'O', 'Si', 'V']"
mp-761004,LiCo2OF3,4,True,-0.2302307155019756,0.3644797866381614,0.5570075627116344,True,0.2356931299514929,-0.3134015443336783,"['Co', 'F', 'Li', 'O']"
mp-25396,Li2NiPCO7,5,True,-0.1624302067820546,0.0723115938889332,-0.8682128617659177,False,-0.6227855439578657,-0.4641421978079404,"['C', 'Li', 'Ni', 'O', 'P']"
mp-673070,LiNb(PO4)2,4,False,-0.8635048214982513,-0.1983448666477609,0.6683222274387527,True,-0.4813647459417774,-0.3212030577626565,"['Li', 'Nb', 'O', 'P']"
mp-1175472,Li9Co7O16,3,True,0.3337307921259244,0.300417180796535,-0.679506067000421,False,0.3223118910473913,-0.4099178316724107,"['Co', 'Li', 'O']"
mp-1221048,NaLiV2O6,4,False,-0.4703378418662339,-0.068121630967552,1.25272421725612,True,-0.7753655455395136,-0.3950830960726049,"['Li', 'Na', 'O', 'V']"
mp-1174825,Li4MnCo2O7,4,True,0.1415796598185817,0.2144664012290161,-0.6278436039914244,False,0.2358937451767884,-0.5075652934564199,"['Co', 'Li', 'Mn', 'O']"
mp-759379,LiMnVP2(HO5)2,6,True,-0.3919621166408137,-0.0538547192981484,-0.2156949639707646,False,-0.4365597374614944,-0.1955623155151146,"['H', 'Li', 'Mn', 'O', 'P', 'V']"
mp-762609,Li2CrCo3O8,4,True,0.3320578590981637,0.0832640817164217,-0.8682128617659177,False,0.5506998792890672,0.3163846182151729,"['Co', 'Cr', 'Li', 'O']"
mp-1211182,LiCr4InS8,4,False,0.9920337533424568,0.2172712552285619,-0.6182288336804446,False,-0.0759333370232969,-0.4651787860146961,"['Cr', 'In', 'Li', 'S']"
mp-551629,CsLiMoO4,4,False,-0.3151216294109885,0.0689748729242527,2.127262057654812,True,-0.2573718026025343,-0.8110445350094436,"['Cs', 'Li', 'Mo', 'O']"
mp-773489,Li4V3P8O29,4,False,-0.6558871144243563,-0.0961833701652138,-0.2646490409766684,False,-0.8153996414901015,2.1423057193943267,"['Li', 'O', 'P', 'V']"
mp-1287701,Li2Mn3CoO8,4,True,0.0252145285255815,-0.0715673880719093,-0.6065150642170678,False,0.327068411563748,-0.4110158151574858,"['Co', 'Li', 'Mn', 'O']"
mp-1190655,LiBH4,3,False,2.546156745967477,1.138202464587478,-0.2319452799893218,False,-2.401114666700364,1.3502130317945338,"['B', 'H', 'Li']"
mp-2895729,Li4Mn5P6WO24,5,True,-0.4226489537826765,-0.9780352833569352,-0.318139664537753,False,0.0770791305041924,0.0719305422272043,"['Li', 'Mn', 'O', 'P', 'W']"
mp-1176141,Li9Mn2Co5O16,4,True,0.1971205500225983,0.2276021121969459,-0.8682128617659177,False,0.2857487933909262,-0.4082543314386042,"['Co', 'Li', 'Mn', 'O']"
mp-770621,Li4Ti3V2Co3O16,5,True,-0.5447413987357491,-0.1598682823291935,-0.8682128617659177,False,0.1718549295939969,-0.3932970848563219,"['Co', 'Li', 'O', 'Ti', 'V']"
mp-778801,Li2MnF4,3,True,-1.143537239249403,0.3818464012308888,1.8666476145072,True,-0.5863751819753018,0.6948148931693139,"['F', 'Li', 'Mn']"
mp-752843,Li2CuF4,3,False,-0.6258264819582052,0.2079628994712073,-0.8682128617659177,False,-0.2744773430393614,-1.0178950812939642,"['Cu', 'F', 'Li']"
mp-1176743,LiCuHSO5,5,False,0.3465178092780133,0.3959996479309913,-0.4056205324376531,False,-0.4395576207457007,-0.6690761087712184,"['Cu', 'H', 'Li', 'O', 'S']"
mp-1174268,Li3MnCoO5,4,True,0.0748831629530176,0.2017150427591445,-0.8682128617659177,False,0.1324047805807463,-0.7166723697105386,"['Co', 'Li', 'Mn', 'O']"
mp-775073,Li4Cr3Fe3(SnO8)2,5,True,-0.1100813883579901,-0.0362602699488123,-0.5511962801038963,False,0.5969987738696841,-0.3657234979413297,"['Cr', 'Fe', 'Li', 'O', 'Sn']"
mp-1212200,K2LiP3HO9,5,False,-0.4219092233050292,0.1881033644647782,1.502843664641748,True,-1.05815623588502,1.619014140450726,"['H', 'K', 'Li', 'O', 'P']"
mp-752638,LiCuCO3,4,False,0.3185889162533497,0.1681361304362293,0.8474142518932699,True,-0.2130726454767962,-0.5088233270572692,"['C', 'Cu', 'Li', 'O']"
mp-37480,LiSbSe2,3,False,1.3858068489356687,-2.209781838633313,-0.7133608920390828,False,0.959634409917083,-0.7079860822643893,"['Li', 'Sb', 'Se']"
mp-753735,Li5Mn5O9F,4,True,-0.2377065970651464,-0.0007894673192055,-0.3692604503461311,False,0.1505500323615238,-0.668356754363939,"['F', 'Li', 'Mn', 'O']"
mp-831186,Li2V2(SO4)3,4,False,-0.1861683294381781,0.0576062228976379,1.4272796951554565,True,-0.6291417315572959,4.2764474956979655,"['Li', 'O', 'S', 'V']"
mp-1347745,Li5Fe3(CoO5)2,4,True,1.5231358367082346,0.5085541610356761,-0.8682128617659177,False,0.3398686685277444,-0.6975360252879274,"['Co', 'Fe', 'Li', 'O']"
mp-777716,Li2FeBPO7,5,True,-0.1081276021562139,0.0832329112294123,-0.7073347331822004,False,-0.7399943800588553,-0.4275435647717147,"['B', 'Fe', 'Li', 'O', 'P']"
mp-1247145,LiOsN2,3,False,2.011532332559504,-0.0932785166370279,-0.8682128617659177,False,2.4574990088464186,-0.9472435437365804,"['Li', 'N', 'Os']"
mp-776237,Li4Mn3Co3(SnO8)2,5,True,0.0866757307734859,0.0724463624726848,-0.8682128617659177,False,0.8841241068579885,-0.4224422705318665,"['Co', 'Li', 'Mn', 'O', 'Sn']"
mp-759486,LiNbSn3(PO4)6,5,False,-0.6781562245187861,-0.0931772860479416,1.1257009137110634,True,-0.1918589869469182,0.1820056235038431,"['Li', 'Nb', 'O', 'P', 'Sn']"
mp-18987,LiMoP2O7,4,False,-0.6698529382768839,-0.1736096845542731,0.1718750730718263,True,-0.3992197209270642,-0.3963314872090159,"['Li', 'Mo', 'O', 'P']"
mp-35591,LiErS2,3,False,-0.1366805233909694,0.4325449888584664,0.5545700153088517,True,0.8185209104289771,-0.778615513455407,"['Er', 'Li', 'S']"
mp-1284679,Li2FeCo3O8,4,True,0.4532046877492512,0.1397319620951782,-0.3903181515201783,False,0.5377251228896383,-0.4494672164524013,"['Co', 'Fe', 'Li', 'O']"
mp-26823,Li2Cu3(P2O7)2,4,False,-0.2621887758037706,0.1191750672974523,-0.7510074574820732,False,-0.1313514774792663,0.2524637249474432,"['Cu', 'Li', 'O', 'P']"
mp-760299,LiVOF2,4,False,-1.025421122421286,0.1211656163584416,0.0636073425981891,True,-0.2739888640531213,0.0464867550973153,"['F', 'Li', 'O', 'V']"
mp-1177732,Li3Co2(SiO4)2,4,True,-0.4413147427946438,0.0600677611563867,-0.4916794976859295,False,-0.4637451423361069,-0.731763795227895,"['Co', 'Li', 'O', 'Si']"
mp-1175120,Li7Mn2(CoO4)3,4,True,0.2612083577492189,0.2480318933552356,-0.8682128617659177,False,0.2021598354349766,-0.61428205922922,"['Co', 'Li', 'Mn', 'O']"
mp-759198,Li2AgF3,3,False,-0.4836886049547053,-0.3058710582257345,0.40012430348248,True,0.3936942088392248,-0.8430638706680381,"['Ag', 'F', 'Li']"
mp-1177077,Li5V3P8O29,4,False,-0.7047023795255476,-0.0888775112399839,-0.8682128617659177,False,-0.8134614199227723,2.164705609652681,"['Li', 'O', 'P', 'V']"
mp-776371,Li2Nb2(PO4)3,4,False,-0.7907573682791241,-0.1914224896835581,-0.8682128617659177,False,-0.3958122079228326,0.233161292642814,"['Li', 'Nb', 'O', 'P']"
mp-1177877,Li2MnVP2(O4F)2,6,True,-0.865962064967269,-0.0733763444286137,-0.2625500418242721,False,-0.4070164193652769,-0.1768748337024932,"['F', 'Li', 'Mn', 'O', 'P', 'V']"
mp-1176275,Li9Mn2Co5O16,4,True,0.1375949133131593,0.211903508756626,-0.235330762493188,False,0.3054821320860562,-0.4140727899606197,"['Co', 'Li', 'Mn', 'O']"
mp-1235433,LiPr2Pa2O8,4,False,-1.7887045012401368,-0.4991530682939551,-0.8682128617659177,False,2.5902978975138256,-0.6852758323802246,"['Li', 'O', 'Pa', 'Pr']"
mp-15845,SrLi4N2,3,False,1.559104432826316,0.1696725050229566,-0.4496318049879124,False,-0.8733729033306372,-0.6756766371750993,"['Li', 'N', 'Sr']"
mp-757106,LiSnPO4,4,False,-0.4639043614387221,0.1262555709612149,0.9510777261616492,True,0.0617122371505897,0.9643270521932124,"['Li', 'O', 'P', 'Sn']"
mp-778748,Li3FeBO4,4,True,-0.2938012344762001,0.1501897369269601,1.2579378603120737,True,-0.4911812824783952,0.6883702580868886,"['B', 'Fe', 'Li', 'O']"
mp-25412,LiNiPCO7,5,True,0.1811382965909248,0.0838534590670889,-0.8682128617659177,False,-0.7506538583389036,-0.4331852282559028,"['C', 'Li', 'Ni', 'O', 'P']"
mp-759103,LiMn(PO3)3,4,True,-0.6552549068115391,-0.1231131291131703,2.286718283586906,True,-0.7350391436356171,0.92310520416999,"['Li', 'Mn', 'O', 'P']"
mp-775215,Li10Cr3Fe3(NiO8)2,5,True,-0.0124327947713596,0.134352234259478,0.2393138845488398,True,0.2879226153759055,-0.3592258144487098,"['Cr', 'Fe', 'Li', 'Ni', 'O']"
mp-1094889,LiMg,2,False,2.121435234064736,1.1471321122433693,-0.8682128617659177,False,-1.6386419508017358,-1.122993716428058,"['Li', 'Mg']"
mp-767053,Li2Co(CO3)2,4,True,0.0378334509397227,-0.0100555427992148,0.7525530321349414,True,-0.7682237345274825,0.1832450751375255,"['C', 'Co', 'Li', 'O']"
mp-776436,Li6V2C4SO16,5,False,-0.1918225362057141,-0.0110145748951986,1.2030930437494427,True,-0.7366167851382385,0.4980232155518943,"['C', 'Li', 'O', 'S', 'V']"
mp-757171,Li3Co3SbO8,4,True,0.2843058728537462,0.2434693872291298,-0.8682128617659177,False,0.6516554720613242,-0.3300026372778243,"['Co', 'Li', 'O', 'Sb']"