material_id,formula_pretty,n_elements,contains_transition_metal,formation_energy_per_atom,energy_per_atom,band_gap,is_semiconductor,density,volume,elements
mp-776967,Li32Ti13Cr3O48,4,False,-0.9513693977294614,-0.0123368410329728,0.0031426250791405,True,-0.2462805541231541,1.268873640586926,"['Cr', 'Li', 'O', 'Ti']"
mp-1651230,Li7Co5O12,3,True,0.3057571154351662,0.3088300841699029,-0.8034147266419212,False,0.3699809994004131,-0.0453381883779961,"['Co', 'Li', 'O']"
mp-761280,LiV(TeO4)3,4,False,0.3969856278286119,0.2814934041074614,0.1301659286241966,True,1.0729075844615763,-0.6715225652235273,"['Li', 'O', 'Te', 'V']"
mp-1176864,Li7V3P8O29,4,False,-0.7891071551663633,-0.0733539346032704,-0.3383171402607949,False,-0.7838231454953135,2.157874378935489,"['Li', 'O', 'P', 'V']"
mp-759979,Li3V2(O2F)2,4,False,-0.7536852690973164,0.0867035639202724,-0.2249034763812804,False,-0.345846489130057,0.0947525229288487,"['F', 'Li', 'O', 'V']"
mp-757419,LiTi(SiO3)2,4,False,-1.2715714211112017,-0.2572797067967866,-0.7555440040372537,False,-0.3467807070606315,1.218429024602024,"['Li', 'O', 'Si', 'Ti']"
mp-777806,Li2NiP2O7,4,True,-0.4990643479139164,0.0757306360213789,1.9249456232237745,True,-0.5694816218800893,2.023708745328777,"['Li', 'Ni', 'O', 'P']"
mp-766038,Li2VSiO5,4,False,-0.8141720056507257,-0.0643824294734177,0.3001171503182752,True,-0.441154014918983,0.907716091356222,"['Li', 'O', 'Si', 'V']"
mp-765591,LiFePO4,4,True,-0.4903935567107753,-0.0656144762962672,1.560464576857549,True,-0.6561385387711736,-0.1456414147519295,"['Fe', 'Li', 'O', 'P']"
mp-1275723,Li3MnCo3O8,4,True,0.3098777720725869,0.1528589629739366,-0.496419173191342,False,0.3784074029924677,-0.3925441919555333,"['Co', 'Li', 'Mn', 'O']"
mp-753893,Li3FeCo3O8,4,True,0.4448335773103428,0.2018360084829738,-0.8682128617659177,False,0.3554513737033093,-0.8109427523793022,"['Co', 'Fe', 'Li', 'O']"
mp-1100509,Li9Mn7O16,3,True,-0.1611020107018616,0.0411609786434093,-0.5594568574133296,False,0.1075549901689429,-0.3762294296517683,"['Li', 'Mn', 'O']"
mp-1235679,Ba2LiZn2(SO)2,5,False,0.2721191664311436,0.7581631792921906,-0.8682128617659177,False,0.6435063273543878,-0.7206623447482877,"['Ba', 'Li', 'O', 'S', 'Zn']"
mp-1246834,LiCoN,3,True,1.7622145051400122,0.3225192173404795,-0.8682128617659177,False,0.5508916556855411,-0.9031644704961456,"['Co', 'Li', 'N']"
mp-763246,LiCoSiO4,4,True,-0.3518400000156527,0.0259197828604057,0.0945506526835252,True,-0.6106414615101414,-0.7043106739832006,"['Co', 'Li', 'O', 'Si']"
mp-1175149,Li7Mn4CoO12,4,True,-0.1013408978374507,0.1033679266105125,-0.4117821105946894,False,0.1877136415181534,-0.6204452127805621,"['Co', 'Li', 'Mn', 'O']"
mp-760036,Li5CoO3F,4,True,-0.0308984256421372,0.5604750539533204,-0.7518876829330784,False,-0.7053329088909928,-0.6667621719787012,"['Co', 'F', 'Li', 'O']"
mp-867534,LiAg2F4,3,False,0.2685182874593709,-0.7780363585933427,-0.8682128617659177,False,0.7530343035401572,-0.0632686466059496,"['Ag', 'F', 'Li']"
mp-1174910,Li7Mn2(CoO4)3,4,True,0.1203215828550407,0.2108760436858679,-0.8682128617659177,False,0.243601764721026,-0.6236743407927635,"['Co', 'Li', 'Mn', 'O']"
mp-761247,Li2CoSiO4,4,True,-0.5841241683920345,0.0729317400342994,1.129154105865007,True,-0.3761158171390741,-0.2461069238564314,"['Co', 'Li', 'O', 'Si']"
mp-1174498,Li5Mn3O8,3,True,-0.1809580421744944,0.1016889821743002,-0.3947869884252822,False,0.0398176277835803,-0.8259410919272149,"['Li', 'Mn', 'O']"
mp-759207,LiSb(TeO4)3,4,False,0.4767172568265884,0.3870887681878013,0.0797899489666691,True,1.3610865141197146,-0.6550115368240108,"['Li', 'O', 'Sb', 'Te']"
mp-753387,Li2Cu3F8,3,False,-0.2394984929709623,0.0846238901157393,-0.6257446048390273,False,0.0037762160989281,-0.7830152478631998,"['Cu', 'F', 'Li']"
mp-1176280,Li9Mn2Co5O16,4,True,0.1327630359782009,0.2106292052741778,0.0904203640288085,True,0.3276656084355621,-0.4205170323624533,"['Co', 'Li', 'Mn', 'O']"
mp-755754,NaLi2MnPCO7,6,True,-0.4682278413355221,-0.0042540546756402,1.7924378380224546,True,-0.6717016843754433,0.4854078131702473,"['C', 'Li', 'Mn', 'Na', 'O', 'P']"
mp-1174068,Li3Mn2O5,3,True,-0.1615911075555146,0.0804907521597717,-0.1497457647954535,False,0.0293665691113909,-0.705603301225887,"['Li', 'Mn', 'O']"
mp-1093969,LiScGa2,3,False,3.848872286299251,-0.1061705015853599,-0.7841851860199617,False,-2.286613462396139,1.5207120165337331,"['Ga', 'Li', 'Sc']"
mp-1027955,LiMg14Zn,3,False,2.190946693940713,1.6451658833617162,-0.8682128617659177,False,-1.203928646390367,-0.2239508740810442,"['Li', 'Mg', 'Zn']"
mp-849283,Li2FeF4,3,True,-1.0181756700626077,0.4435907295011289,1.5653396716631156,True,-0.2229751426072813,-0.4202065615992658,"['F', 'Fe', 'Li']"
mp-757942,LiNiPO4,4,True,-0.363249476485769,0.0794118233795884,1.2599014401643158,True,-0.1580309863634544,0.0767391568947475,"['Li', 'Ni', 'O', 'P']"
mp-759420,Li3MnF5,3,True,-1.1859280489226895,0.4374979283475621,1.8760592558679472,True,-0.77017075650681,0.0219005752344292,"['F', 'Li', 'Mn']"
mp-1302599,Li5MnO3F,4,True,-0.2381270771827838,0.4469636648855116,0.0189866831972338,True,-0.8553950590117434,-0.0226780968194359,"['F', 'Li', 'Mn', 'O']"
mp-801464,Li3V4O7F5,4,False,2.445108673689183,0.8662164635466176,-0.8277224910196791,False,-0.1943964807458685,-0.6400068312086973,"['F', 'Li', 'O', 'V']"
mp-1263751,LiFeSi3O8,4,True,-0.9536471383293932,-0.1911313411413859,1.2421615118440577,True,-0.7141966848819344,0.7281625731183607,"['Fe', 'Li', 'O', 'Si']"
mp-2362485,LiMg,2,False,2.121739063139886,1.147212240612054,-0.8682128617659177,False,-1.659208072995582,-0.8843229886597717,"['Li', 'Mg']"
mp-1235538,LiPr2(BrO2)2,4,False,-0.3959719772444899,0.3199781034170657,-0.2939673194601496,False,0.7887540313696669,-0.7395433486274198,"['Br', 'Li', 'O', 'Pr']"
mp-1177041,Li6V3P8O29,4,False,-0.7554950365676851,-0.0829705308433897,-0.2104813209148108,False,-0.7897490103654289,2.143677215084707,"['Li', 'O', 'P', 'V']"
mp-1176171,Li9Mn2Co5O16,4,True,0.2039591070657423,0.2294056341928274,-0.8682128617659177,False,0.2630150151575867,-0.4014484928436795,"['Co', 'Li', 'Mn', 'O']"
mp-765549,Li7CoOF7,4,True,-0.9783757448794266,0.5763811839192985,0.6924945725163559,True,-0.524122962596795,0.4200916700331579,"['Co', 'F', 'Li', 'O']"
mp-1176046,Li9Mn2Co5O16,4,True,0.1926084572884961,0.226412145009121,-0.8039564038425397,False,0.2669655338975623,-0.4026391664936278,"['Co', 'Li', 'Mn', 'O']"
mp-774496,Li5Mn(SiO3)4,4,True,-0.8808260971283881,-0.0095408397819526,-0.8376758095810456,False,-0.7818269178009254,3.1522414122656826,"['Li', 'Mn', 'O', 'Si']"
mp-777395,Li4MnV3(P2O7)4,5,True,-0.790104646423674,-0.159368935228932,-0.5325084166825548,False,-0.5983038747586463,0.3254180532000688,"['Li', 'Mn', 'O', 'P', 'V']"
mp-759046,LiFe(PO3)4,4,True,-0.5389649057399789,-0.0769546918258842,0.0948892009339119,True,-0.8415712831327179,1.6758738987557675,"['Fe', 'Li', 'O', 'P']"
mp-1174725,Li4MnCo2O7,4,True,0.1935207851699275,0.2281647533040207,-0.8682128617659177,False,0.2190890252553111,-0.5030651631612627,"['Co', 'Li', 'Mn', 'O']"
mp-1202839,LiCd4(GeO3)5,4,False,0.1194812582871027,0.3738877830628282,-0.5040703636500794,False,0.9244198542429488,0.7422242005060545,"['Cd', 'Ge', 'Li', 'O']"
mp-853240,LiCoO2,3,True,0.2917708753102642,0.2419800846510658,0.4073692360407535,True,0.6258738719935445,-0.8375303935778511,"['Co', 'Li', 'O']"
mp-1174567,Li5Mn2CoO8,4,True,0.1986691692446878,0.2385945375196295,-0.8682128617659177,False,-0.0609337549844554,-0.8037420236857555,"['Co', 'Li', 'Mn', 'O']"
mp-752835,Li2Cu2F5,3,False,-0.3331768206971369,0.0937324489906206,-0.8682128617659177,False,-0.0117583909382889,-0.631910725350893,"['Cu', 'F', 'Li']"
mp-768944,LiVB2O5,4,False,-0.7682189165711687,-0.2464862436829866,0.5719713953787233,True,-0.5035589474291383,0.8029528575134122,"['B', 'Li', 'O', 'V']"
mp-1367343,LiTi2O4,3,False,-1.3511719076213566,-0.3716080864928635,-0.8682128617659177,False,0.0792781217775267,-0.4118476741101342,"['Li', 'O', 'Ti']"
mp-760580,Li2AgF3,3,False,-0.4946040988425743,-0.3087497844246212,0.5519293389558361,True,0.3010998315136233,-0.8300461016776471,"['Ag', 'F', 'Li']"
mp-772990,Li4Ti2V3Cr3O16,5,False,-0.7531244796297452,-0.30546803775924,-0.1957883268480325,False,0.142247450736005,-0.4053237221835544,"['Cr', 'Li', 'O', 'Ti', 'V']"
mp-776330,Li4Cu2C4SO16,5,False,0.2329913163914447,0.1381311306254219,-0.8623221222091914,False,-0.6337366257964857,0.4415320925802516,"['C', 'Cu', 'Li', 'O', 'S']"
mp-757130,Li6CrCoP2(CO7)2,6,True,-0.4019741661681342,0.0177180218591887,0.0185127156466925,True,-0.6497853137024591,0.3579643416468118,"['C', 'Co', 'Cr', 'Li', 'O', 'P']"
mp-733455,Li3H6Rh,3,False,1.6360380526776033,0.4606727984617245,0.8961651999489416,True,-0.7873495338969254,-0.2709281858426808,"['H', 'Li', 'Rh']"
mp-14466,KLi6IrO6,4,False,0.0940906939289438,0.5043000467431731,-0.8682128617659177,False,0.352939310927133,-0.8245847312411106,"['Ir', 'K', 'Li', 'O']"
mp-1235276,Rb2Ba8Li(Sb3O)2,5,False,0.7247253992469325,0.9069087993606544,-0.8604262520070257,False,0.644703867622676,0.8359806082869408,"['Ba', 'Li', 'O', 'Rb', 'Sb']"
mp-541578,Li4Mo5O17,3,False,-0.1363350759426609,-0.1262599725299146,1.2108796535083342,True,0.115155417811772,0.6675589296758138,"['Li', 'Mo', 'O']"
mp-755618,LiVP4(H2O7)2,5,False,-0.384778396822249,0.0408595353913425,0.6635825519333395,True,-0.8826978075056824,-0.4298244496162693,"['H', 'Li', 'O', 'P', 'V']"
mp-760793,Li10Cr3P6(O4F)6,5,False,-0.6635599942448279,0.115673851575716,-0.8682128617659177,False,-0.7767366058572425,0.4455698024481622,"['Cr', 'F', 'Li', 'O', 'P']"
mp-773482,Li2V3FeO8,4,True,-0.4095004280558294,-0.2090585841614556,-0.046353129127382,False,0.0668765427542908,0.5080993075863843,"['Fe', 'Li', 'O', 'V']"
mp-26429,LiVPO5,4,False,-0.7320258147641865,-0.1466795107364703,-0.0087742733344682,False,-0.3621097609522949,-0.2289403488496243,"['Li', 'O', 'P', 'V']"
mp-887315,Li3MnV(PO4)3,5,True,-0.6866458526299165,-0.087190772041029,-0.4369023907733759,False,-0.5862050447971512,1.5087249150245234,"['Li', 'Mn', 'O', 'P', 'V']"
mp-774652,KLi(WO3)6,4,False,-0.2385925696261479,-0.4196405089015524,-0.8682128617659177,False,1.7212574448870936,-0.1483581247090172,"['K', 'Li', 'O', 'W']"
mp-1235947,Ba2LiTbIrO6,5,False,-0.6218636428133214,0.0846250204739556,-0.8682128617659177,False,2.5841878471417625,-0.7791481476514089,"['Ba', 'Ir', 'Li', 'O', 'Tb']"
mp-1666632,Li7Co5O12,3,True,0.3106929457258388,0.3101318030034237,-0.7070638945818911,False,0.305590618393562,-0.0180509125366473,"['Co', 'Li', 'O']"
mp-1175164,Li7Mn4CoO12,4,True,-0.0711260036376814,0.1113364535890435,-0.7252100808026134,False,0.1500357997737589,0.0147634969421278,"['Co', 'Li', 'Mn', 'O']"
mp-26947,Li2V(PO4)2,4,False,-0.7311863145816031,-0.0672413945193994,0.1992974813531419,True,-0.5183269635761074,-0.4170576553268245,"['Li', 'O', 'P', 'V']"
mp-831244,Li2Mn(Si2O5)2,4,True,-1.044211829703386,-0.1730477437294459,1.5527456767487342,True,-0.9787685517633709,1.622524303515823,"['Li', 'Mn', 'O', 'Si']"
mp-753440,LiMn3(OF3)2,4,True,-0.6548672822564867,0.1383844884453557,-0.0418165825722015,False,-0.3163605335443504,-0.7732781421480275,"['F', 'Li', 'Mn', 'O']"
mp-1275808,Li2Mn3SbO8,4,True,-0.1351627874548613,-0.0515974531492092,-0.3572081326323678,False,0.4537005433040906,-0.3103128032058423,"['Li', 'Mn', 'O', 'Sb']"
mp-761862,LiB2SbO6,4,False,-0.4712906700547422,-0.0097123829706058,1.3413561492073345,True,-0.310784981878924,0.1996903270423533,"['B', 'Li', 'O', 'Sb']"
mp-12263,LiAuF4,3,False,-0.0457944161208387,0.9058477754452806,0.535949861537588,True,1.5968088882356255,-0.3633704672384126,"['Au', 'F', 'Li']"
mp-768711,LiCrBO3,4,False,-0.5089599557925047,-0.1954066962186326,0.5475959213508866,True,-0.4008955873690487,-0.5214512460130731,"['B', 'Cr', 'Li', 'O']"
mp-10615,BaLiP,3,False,1.2078240626177317,0.9633114741641864,-0.3954640849260554,False,0.0373055295564484,-1.0173731222256537,"['Ba', 'Li', 'P']"
mp-1337141,Li3Mn2P4HO14,5,True,0.2680426807671484,0.1783003324119329,0.1232595443163099,True,-0.6989541827680155,-0.3881840514226464,"['H', 'Li', 'Mn', 'O', 'P']"
mp-1096283,Li2CaCd,3,False,3.276458628281767,1.9107990522615947,-0.8682128617659177,False,-2.3807578025114897,2.9201201367797798,"['Ca', 'Cd', 'Li']"
mp-761063,Li3FeNi3O8,4,True,0.5972748195490188,0.3205692895219835,-0.8682128617659177,False,0.5904854883137381,-0.450013215957521,"['Fe', 'Li', 'Ni', 'O']"
mp-542874,LiAl(SiO3)2,4,False,-1.3395595733721208,-0.1548012963281329,2.862995115394994,True,-0.429293447608586,-0.0899915009849833,"['Al', 'Li', 'O', 'Si']"
mp-758653,Li4Ti3Cr3(SbO8)2,5,False,-0.6971683960056551,-0.1757064371643495,-0.8682128617659177,False,0.3982979329348442,-0.3257776373100797,"['Cr', 'Li', 'O', 'Sb', 'Ti']"
mp-863410,Li2Nb(PO3)5,4,False,-0.6822740590790984,-0.094642504642424,-0.8244047181658903,False,-0.7502384178501383,0.5917987783283364,"['Li', 'Nb', 'O', 'P']"
mp-1105750,LiAu(S2O7)2,4,False,0.3631609089817627,0.3142472073420675,0.4746726282176108,True,-0.4390651633961076,-0.3762369957548584,"['Au', 'Li', 'O', 'S']"
mp-1174450,Li4MnCo2O7,4,True,0.143753173394906,0.2150396185785994,-0.2710137480839367,False,0.2371892153806205,-0.5079099205652686,"['Co', 'Li', 'Mn', 'O']"
mp-777402,Li10Ti2Mn3Ni3O16,5,True,-0.2297670607748961,0.122366638296562,-0.5778738822343613,False,0.2603527143606926,-0.3554360480924278,"['Li', 'Mn', 'Ni', 'O', 'Ti']"
mp-754096,Li2TiFeO4,4,True,-0.6096362777978115,-0.0718624811286767,-0.8682128617659177,False,0.2608944029612448,-0.8175300543489453,"['Fe', 'Li', 'O', 'Ti']"
mp-1174576,Li7Mn2(CoO4)3,4,True,0.0894137458100036,0.202724767970221,-0.0521761590340317,False,0.2190679655453427,-0.6181485302442652,"['Co', 'Li', 'Mn', 'O']"
mp-757540,LiFeSiO4,4,True,-0.54788026858753,-0.0811834086013525,0.9824950037975272,True,-0.8390016824183182,2.331659926968201,"['Fe', 'Li', 'O', 'Si']"
mp-35929,LiMnO2,3,True,-0.1361024836905421,-0.0180105388216029,0.0982746834377779,True,0.1131746206438459,-0.7787534112468399,"['Li', 'Mn', 'O']"
mp-1175933,Li9Mn2Co5O16,4,True,0.2936902282648066,0.2530702830034804,-0.8682128617659177,False,0.2874951122469611,-0.4087725527111926,"['Co', 'Li', 'Mn', 'O']"
mp-1177614,Li3MnV(PO4)3,5,True,-0.6963421799234981,-0.089747969333223,-0.4970962696921153,False,-0.5784560748090867,1.4976999320337685,"['Li', 'Mn', 'O', 'P', 'V']"
mp-1201902,LiH2BrO5,4,False,1.1329749509616456,0.7067501596764512,1.1941553699392362,True,-0.779157392640013,0.014388297841707,"['Br', 'H', 'Li', 'O']"
mp-774621,Li5MnO4,3,True,-0.0941172812389482,0.3969092119437542,0.1960474181494311,True,-0.820429496690918,-0.6543920449981586,"['Li', 'Mn', 'O']"
mp-1031127,RbLiMg6O7,4,False,-0.3881403810722913,0.5213040046449561,-0.8682128617659177,False,-0.5945639401370943,-0.651286010498723,"['Li', 'Mg', 'O', 'Rb']"
mp-757544,LiFeSiO4,4,True,-0.5461551550173516,-0.0807284470868719,0.9439682129035312,True,-0.5483632641903872,-0.2245951116115566,"['Fe', 'Li', 'O', 'Si']"
mp-755298,Li4NbO4,3,False,-0.4808505138684877,0.2020625216808854,-0.8682128617659177,False,-0.4527605444471949,-0.9500524839594894,"['Li', 'Nb', 'O']"
mp-758908,LiCoPO4F,5,True,-0.3297453682569692,0.1401969240171342,-0.6000149378096449,False,-0.4325792204123248,0.9846036121473064,"['Co', 'F', 'Li', 'O', 'P']"
mp-647275,Ba39Li80N9,3,False,2.097097228682769,1.4058954421055478,-0.8682128617659177,False,-0.8143277630030591,10.189518641852036,"['Ba', 'Li', 'N']"
mp-775806,Li3SbS3,3,False,0.9271680069955176,0.8601561232905811,0.7012291173763312,True,-0.7851406610840127,2.3165134211218663,"['Li', 'S', 'Sb']"
mp-752490,LiVFe(P2O7)2,5,True,-0.6537959851977255,-0.1589648567756589,0.2955806037630939,True,-0.5820079154895191,0.2987594350761279,"['Fe', 'Li', 'O', 'P', 'V']"
mp-867295,LiCeTl2,3,False,1.7217869361128035,-8.13229274358739,-0.8682128617659177,False,3.4635339044277043,-0.939601157218626,"['Ce', 'Li', 'Tl']"
mp-1021405,LiMg6Mo,3,False,2.3665878165626912,1.3454947881847998,-0.8682128617659177,False,-0.7879274442940295,-0.3110170020806068,"['Li', 'Mg', 'Mo']"
mp-1236076,LiTm2(ClO)2,4,False,-0.8240118802310444,0.3072932153823768,-0.8682128617659177,False,1.347707960555983,-0.8657441500002057,"['Cl', 'Li', 'O', 'Tm']"
mp-765566,LiAg2F6,3,False,0.3396597785029709,-0.4302526914869606,-0.8682128617659177,False,0.6033932907472094,-0.1971345387661247,"['Ag', 'F', 'Li']"
mp-768185,Ba4Li4Ti19O44,4,False,-1.5601535517866931,-0.4380127055838319,0.6681190984885209,True,0.3919190290851531,1.1842107058846298,"['Ba', 'Li', 'O', 'Ti']"
mp-849374,Li10Mg12Fe(PO4)12,5,True,-1.0425791721813058,0.0416367376930312,2.1663305257494274,True,-0.5294833184280935,1.2843405665210457,"['Fe', 'Li', 'Mg', 'O', 'P']"
mp-867834,LiHfPt2,3,False,1.0462413187323594,-9.103108368185472,-0.8682128617659177,False,7.532405901357719,-1.054256442776947,"['Hf', 'Li', 'Pt']"
mp-1236536,LiV2Zn2(SiO5)2,5,False,-0.5443440714922771,-0.0201524055277725,-0.8682128617659177,False,0.1226158213649885,-0.6825212392520149,"['Li', 'O', 'Si', 'V', 'Zn']"
mp-1222649,Li2MgTi3O8,4,False,-1.3470071470826857,-0.2406682161010969,0.7495060978814613,True,-0.2318029957783557,-0.8017539957864475,"['Li', 'Mg', 'O', 'Ti']"
mp-1245502,Li2TiN2,3,False,0.8686993492600249,0.1204034474446516,-0.2849619359998658,False,-0.2406321228951508,-1.1112077432325889,"['Li', 'N', 'Ti']"
mp-1235271,LiMn6(OF2)4,4,True,-0.6051671020077068,-0.0255211461554801,-0.7797163491148578,False,0.1516704370710184,-0.5719417016689398,"['F', 'Li', 'Mn', 'O']"
mp-1222301,LiTiO2,3,False,-1.0735165709902226,-0.1733636252822933,-0.8682128617659177,False,0.2247028805858096,-1.1362833657415934,"['Li', 'O', 'Ti']"
mp-760146,Li2VF5,3,False,-1.3099531371732274,0.3782938472553189,0.6184202153317656,True,-0.763972100832259,-0.0630005570434642,"['F', 'Li', 'V']"
mp-757295,Li6Cr3Ni(PO4)6,5,True,-0.6236428161645424,-0.0578625263076452,-0.643958500709827,False,-0.4824551568958583,0.0696042810345203,"['Cr', 'Li', 'Ni', 'O', 'P']"
mp-769384,Li3NbOF6,4,False,-1.3467406726003668,0.3326794345566071,2.490456620669568,True,-0.2116430876724774,0.1231205492894454,"['F', 'Li', 'Nb', 'O']"
mp-28637,Li4FeN2,3,True,1.958808833053734,0.6965344197967254,-0.8682128617659177,False,-1.1761882658909435,-0.9694971642296228,"['Fe', 'Li', 'N']"
mp-779008,Li4Mn3O8,3,True,-0.1328595141550667,0.0586757703338254,0.3152841119355953,True,-0.042115838979396,0.4293399442270523,"['Li', 'Mn', 'O']"
mp-760236,Li2VCrP2(O4F)2,6,False,-0.9068799165779224,-0.0930720335244335,0.4712194360636682,True,-0.3910346380506902,0.3283829880971423,"['Cr', 'F', 'Li', 'O', 'P', 'V']"
mp-759020,LiFeSiO4,4,True,-0.5603701701949596,-0.0844773508955061,0.7897256300273913,True,-0.5467883184964847,0.2809617507337427,"['Fe', 'Li', 'O', 'Si']"
mp-1177533,Li3P5(WO6)4,4,False,-0.5615742823968471,-0.2485834895743286,1.5124584349527277,True,0.3856266848077359,1.6322813570528607,"['Li', 'O', 'P', 'W']"
mp-555065,LiEr(PO3)4,4,False,-1.0492347273631155,-0.1486249317105125,3.164303058239078,True,-0.1111605643734881,0.0731676649865384,"['Er', 'Li', 'O', 'P']"
mp-867873,LiTm2Al,3,False,1.905805240106309,-3.7152240413080406,-0.8682128617659177,False,1.9786605348828237,-0.9723755017311102,"['Al', 'Li', 'Tm']"
mp-1185365,LiMg2Au,3,False,1.664980822643427,1.3653742992313744,-0.8682128617659177,False,1.5363481921082078,-1.0379014446011428,"['Au', 'Li', 'Mg']"
mp-1175545,Li9Mn2Co5O16,4,True,0.1485315254152928,0.214787804429263,-0.2846233877494785,False,0.3387995477704428,-0.4237135742117143,"['Co', 'Li', 'Mn', 'O']"
mp-768935,Li5Mn2P2(CO7)2,5,True,-0.4350666362223355,-0.0433004572647737,-0.4635799929038415,False,-0.6898589185274987,0.3649287724070523,"['C', 'Li', 'Mn', 'O', 'P']"
mp-1178090,Li12Mn7V(PO4)12,5,True,-0.6677854007481792,-0.0830666045559262,-0.4469234189848196,False,-0.5250701887992588,1.4434711654764272,"['Li', 'Mn', 'O', 'P', 'V']"
mp-1184991,Li2SnPb,3,False,1.8441841343614576,1.1880378766957604,-0.8682128617659177,False,1.9454964122046847,-0.993441507337557,"['Li', 'Pb', 'Sn']"
mp-760066,Li8NiO5F,4,True,-0.0420271672370515,0.604901318297267,-0.100182300938853,False,-0.7115473844398232,-0.4771030042065035,"['F', 'Li', 'Ni', 'O']"