material_id,formula_pretty,n_elements,contains_transition_metal,formation_energy_per_atom,energy_per_atom,band_gap,is_semiconductor,density,volume,elements
mp-778882,Li8Mn5Fe3(BO3)8,5,True,-0.5096517209835789,-0.1592950573373291,-0.8178368821083909,False,-0.3932836578019945,0.2299006047909016,"['B', 'Fe', 'Li', 'Mn', 'O']"
mp-754000,Li2VF5,3,False,-1.356791254675492,0.3659413034908849,0.7922308870802524,True,-0.356508702903513,-0.7617960799535689,"['F', 'Li', 'V']"
mp-1093641,Li2HgPt,3,False,3.1323381441760065,-5.297154216632602,-0.8682128617659177,False,-2.0043149939878213,1.3646510081840495,"['Hg', 'Li', 'Pt']"
mp-756489,Li6FeS4,3,True,0.9157942244101492,0.8181198393327819,-0.8682128617659177,False,-1.098316169966685,-0.2114584607724887,"['Fe', 'Li', 'S']"
mp-752528,LiP2WO7,4,False,-0.5967953451173995,-0.2100633216418047,1.7954847722759342,True,0.2747618370395231,-0.397549447051842,"['Li', 'O', 'P', 'W']"
mp-1176706,LiFeF3,3,True,-0.8942537495826425,0.3674494905427568,-0.8635408959105826,False,-0.2390598478003706,-0.561042768002174,"['F', 'Fe', 'Li']"
mp-798859,Li3VP3O11,4,False,3.014544020841647,0.955821661137878,-0.8682128617659177,False,-0.7049861919382105,-0.0265669723452899,"['Li', 'O', 'P', 'V']"
mp-686745,Ba3LiTi5Nb3O21,5,False,-1.5010334650006965,-0.4516422882433693,0.6136805398263533,True,0.7382492147298212,1.2769751112347207,"['Ba', 'Li', 'Nb', 'O', 'Ti']"
mp-778205,Li8Mn7Fe(BO3)8,5,True,-0.560766507071719,-0.1811413310131516,1.1908375970854477,True,-0.4075265777444001,0.2370809769145806,"['B', 'Fe', 'Li', 'Mn', 'O']"
mp-756991,Li4Co2Cu3Sb3O16,5,True,0.4040995038778145,0.3422066417677253,-0.8682128617659177,False,0.9159984848560946,-0.3412866951746046,"['Co', 'Cu', 'Li', 'O', 'Sb']"
mp-1235294,Sr2LiCuBrO2,5,False,0.0951987939729419,0.6964917295521326,-0.8682128617659177,False,0.0769940978750221,-0.7945084544919317,"['Br', 'Cu', 'Li', 'O', 'Sr']"
mp-1293011,Li2VOF3,4,False,-1.0880847574633514,0.2739456381580742,0.2863043817025015,True,-0.4478574987987977,-0.3801660406947745,"['F', 'Li', 'O', 'V']"
mp-758567,Li3Co2(SiO4)2,4,True,-0.4622033762684708,0.0545588343906555,-0.7242621457015317,False,-0.4029787129162559,-0.746374095748774,"['Co', 'Li', 'O', 'Si']"
mp-778232,Li2V3Cr2O12,4,False,-0.3887770951172906,-0.2397793282037234,-0.8403841955841385,False,-0.550733200907811,1.7936395369468885,"['Cr', 'Li', 'O', 'V']"
mp-765561,Li6Mn5FeO12,4,True,-0.074574963101918,0.0065818691030702,-0.8682128617659177,False,0.0592366993931817,-0.5334509657855603,"['Fe', 'Li', 'Mn', 'O']"
mp-757482,Li2Mn2Si5O13,4,True,-1.0563978891024208,-0.2379582297576546,1.461540778094581,True,-0.5162312879954049,0.2820425119716698,"['Li', 'Mn', 'O', 'Si']"
mp-1174030,Li3MnCoO5,4,True,0.1162095311862031,0.2126139814750495,-0.8179045917584674,False,0.0961452706487561,-0.7094145459081193,"['Co', 'Li', 'Mn', 'O']"
mp-37879,LiYSe2,3,False,0.0225314651816481,-2.178145527104223,0.2560381681179385,True,0.5215571224269574,-0.7009066198917736,"['Li', 'Se', 'Y']"
mp-1100725,Li9Mn2Co5O16,4,True,0.1832331985694447,0.2239396226319272,-0.8682128617659177,False,0.257400515786603,-0.3997504501471121,"['Co', 'Li', 'Mn', 'O']"
mp-26519,Li3Mo(PO4)2,4,False,-0.6776259206161019,-0.0282498408563635,1.9368625216373827,True,-0.1825811046787191,0.453526667785416,"['Li', 'Mo', 'O', 'P']"
mp-695783,LiNi(PO3)4,4,True,-0.4360533630994412,-0.0064549062096877,-0.8682128617659177,False,-0.6527531806845446,1.3991661239624902,"['Li', 'Ni', 'O', 'P']"
mp-768421,Li24Ti5Cr7O36,4,False,-0.6234414845895624,0.0405045097870825,-0.07472347250978,False,-0.1821076369362869,0.6173042110357622,"['Cr', 'Li', 'O', 'Ti']"
mp-1222481,LiCe(MoO4)2,4,False,-0.5423194519335138,-0.2755414589098225,-0.8682128617659177,False,0.6941258275876638,-0.7705123811751864,"['Ce', 'Li', 'Mo', 'O']"
mp-1305983,Li4Cr3CoO8,4,True,-0.2755242864240986,-0.0447064349011774,0.4426459637310381,True,0.3138481022061661,-0.3956503681451075,"['Co', 'Cr', 'Li', 'O']"
mp-1235077,LiLa2Co2Sb2(PbO6)2,6,True,-0.1068837352512504,0.1136216894114122,-0.8577178660039335,False,2.3505355512890223,-0.4112971277914173,"['Co', 'La', 'Li', 'O', 'Pb', 'Sb']"
mp-1195211,LiNd(PN2)4,4,False,1.0356020827802752,-0.1579228649863133,1.513880337604351,True,0.1816280155194551,0.6081030151086151,"['Li', 'N', 'Nd', 'P']"
mp-850774,Li3V4(OF3)3,4,False,-1.058614134614906,0.1275196992818005,-0.2618729453234982,False,-0.2596210916353431,1.292225264363318,"['F', 'Li', 'O', 'V']"
mp-774493,Li5Mn7O15,3,True,-0.0477389019986639,-0.0631795579276644,-0.8682128617659177,False,-0.0047538750803835,-0.3936370407334323,"['Li', 'Mn', 'O']"
mp-850464,Li5Cr4O8,3,False,-0.2656188165030783,-0.0288080082258309,-0.0934113359311216,False,0.0771858741314274,0.6010556067212062,"['Cr', 'Li', 'O']"
mp-765036,Li2MnOF3,4,True,-0.8428078688126297,0.3353945294948346,-0.241424631000147,False,-0.4323533923084057,-0.3618766961827723,"['F', 'Li', 'Mn', 'O']"
mp-778621,Li32Ti3Cr13O48,4,False,-0.4396779316530509,0.0694909097820369,-0.1494072165450669,False,-0.1523260932927755,1.2251354677210513,"['Cr', 'Li', 'O', 'Ti']"
mp-780111,Li2Mn3(BO3)3,4,True,-0.5190959428382561,-0.234470976899915,-0.8682128617659177,False,-0.4014854965222185,-0.1570634359377029,"['B', 'Li', 'Mn', 'O']"
mp-771707,Li2SnBPO7,5,False,-0.5879221493417403,0.0645464970053794,1.1009868914328405,True,-0.437638693581693,-0.3511440110143065,"['B', 'Li', 'O', 'P', 'Sn']"
mp-861533,Na2Li2CoO4,4,True,0.3661763359544011,0.5576998488699533,-0.4421160338293297,False,-0.6570541797736331,0.0283576503189687,"['Co', 'Li', 'Na', 'O']"
mp-27081,Li7Fe4P9O32,4,True,-0.5989957493168021,-0.0382433745348616,0.8975871026005654,True,-0.5929929923744633,2.320351745291241,"['Fe', 'Li', 'O', 'P']"
mp-758156,Li3Sn3(PO4)4,4,False,-0.5202440553412657,0.0782021359282135,-0.8682128617659177,False,-0.1342649452190346,0.806607516450744,"['Li', 'O', 'P', 'Sn']"
mp-778476,Li6Mn5Fe(BO3)6,5,True,-0.5572903166545555,-0.1788302522684054,1.088325186868382,True,-0.3768667452465445,-0.147294837440242,"['B', 'Fe', 'Li', 'Mn', 'O']"
mp-753694,LiVF6,3,False,-1.0414716204175902,0.4489212738054595,1.3234808015869215,True,-0.9505230234659814,-0.8843800656685801,"['F', 'Li', 'V']"
mp-25459,Li3CrPCO7,5,False,-0.4576077639756759,-0.0250720172052033,1.1683579932597763,True,-0.7355360597163396,0.4100391068476392,"['C', 'Cr', 'Li', 'O', 'P']"
mp-1196577,LiH3CN2O,5,False,1.2104671225109642,0.3003461713133947,1.877955126070112,True,-1.613310129358268,1.5976831482829172,"['C', 'H', 'Li', 'N', 'O']"
mp-676932,SrLiEuTeO6,5,False,-0.607204798428126,0.0230323137683988,-0.8682128617659177,False,1.5412652491027623,-0.4934367616334721,"['Eu', 'Li', 'O', 'Sr', 'Te']"
mp-755463,Li3SbS3,3,False,0.9257388009088044,0.85977920099575,0.6088054450207867,True,-0.6599153377554265,-0.4096629367539245,"['Li', 'S', 'Sb']"
mp-1093585,LiCu2Ni,3,True,4.265179603390048,0.0477769718398054,-0.8682128617659177,False,-2.155061354823087,0.5081563511312077,"['Cu', 'Li', 'Ni']"
mp-1247356,LiIrN2,3,False,2.2644531695241104,0.1467097107570322,-0.8682128617659177,False,2.387765284375546,1.1430651794859248,"['Ir', 'Li', 'N']"
mp-1190195,LiIn(WO4)2,4,False,-0.2546486292463179,-0.2249943102787761,1.3973520298212796,True,2.176529818762621,-0.3926841577647803,"['In', 'Li', 'O', 'W']"
mp-780735,Li4V3Fe2Ni3O16,5,True,0.0552612059136876,0.0162173570335641,-0.5031224285489977,False,0.2795685367197826,-0.4048648165220774,"['Fe', 'Li', 'Ni', 'O', 'V']"
mp-758888,Li6Fe7O15,3,True,0.298468104370055,0.1153014183600896,-0.8682128617659177,False,0.2770283324162647,-0.463746313691896,"['Fe', 'Li', 'O']"
mp-2912170,Li6(CoO2)5,3,True,0.41021394556626,-0.2898867001937456,-0.8682128617659177,False,0.0630593040016655,-0.6191448605889066,"['Co', 'Li', 'O']"
mp-1177176,Li5Cr(P2O7)2,4,False,-0.7337109628297868,0.0138271342314564,0.9606924964726298,True,-0.6507377217968061,0.262290015511867,"['Cr', 'Li', 'O', 'P']"
mp-753130,Li4CuF7,3,False,-0.7098038041954002,0.3293735584139049,-0.7067930559815819,False,-0.7726406293298222,-0.4093802473079744,"['Cu', 'F', 'Li']"
mp-1174280,Li6Mn3CoO10,4,True,-0.0325426798941761,0.1439541427641396,-0.4478713540859021,False,0.1078853814128332,-0.7166839966990568,"['Co', 'Li', 'Mn', 'O']"
mp-1019724,LiEuO2,3,False,-0.8473549000269888,-0.2872715872120154,-0.8682128617659177,False,1.5085927649944149,-0.6284149308363046,"['Eu', 'Li', 'O']"
mp-1212219,LiZnBP2O11,5,False,0.3330064193186774,0.2645783032615281,-0.522351969170957,False,-0.7872864611907674,2.3514763254857,"['B', 'Li', 'O', 'P', 'Zn']"
mp-767657,Li4Ti2Nb3Co3O16,5,True,-0.6695699646731725,-0.2367320923809136,-0.3179365355875209,False,0.4635395727727093,-0.3370133746721407,"['Co', 'Li', 'Nb', 'O', 'Ti']"
mp-779300,LiFe2OF5,4,True,-0.6214654795340672,0.2991765302339697,0.6888382514121812,True,-0.0448154696678212,-0.0424404558813209,"['F', 'Fe', 'Li', 'O']"
mp-1195443,LiMn4O8,3,True,0.0679604430539737,-0.1873475640788555,-0.8682128617659177,False,0.1987144951769276,0.4427056685567963,"['Li', 'Mn', 'O']"
mp-1177973,Li2Fe3WO8,4,True,0.0348541241287573,-0.1467169639076509,-0.1643710492121551,False,0.945627742446971,0.5939870799535011,"['Fe', 'Li', 'O', 'W']"
mp-1211183,LiTm6B3O14,4,False,-1.82802119862514,-0.3712785168942696,2.433715933904772,True,2.5587283941754086,1.9952708796139456,"['B', 'Li', 'O', 'Tm']"
mp-756352,Li3Cr(NiO2)4,4,True,0.3505057744515906,0.215199189833641,-0.8682128617659177,False,0.8568376911412406,-0.8229923226328933,"['Cr', 'Li', 'Ni', 'O']"
mp-753568,LiVF4,3,False,-1.271728441670654,0.3015733531943926,0.6859267364588566,True,-0.6134395927620727,-0.7850285184772615,"['F', 'Li', 'V']"
mp-755408,Li4Co5O9F,4,True,0.2949574310563461,0.2460039403894301,-0.0871820481240073,False,0.6815550270018035,-0.7500783098353575,"['Co', 'F', 'Li', 'O']"
mp-759319,Li3Fe5O12,3,True,0.5710552598554697,0.1305052152916871,-0.8682128617659177,False,0.0342818392277625,0.0031074635661025,"['Fe', 'Li', 'O']"
mp-772085,LiNb10O18,3,False,-0.8713990087187372,-0.6118879515578524,-0.8313111024737778,False,1.1973716837250927,0.8806572160300241,"['Li', 'Nb', 'O']"
mp-756533,Li4Cu3WO8,4,False,0.2998510826173891,0.3035535419200034,-0.7490438776298315,False,1.3861264112637552,-0.8014522119180287,"['Cu', 'Li', 'O', 'W']"
mp-1178207,Li2Cr3CuO8,4,False,0.0102385243511301,-0.0431631769168163,-0.4945233029891777,False,0.2596434719273482,0.436876418284395,"['Cr', 'Cu', 'Li', 'O']"
mp-1174327,Li4Co3O7,3,True,0.3483716188056913,0.3110456793019974,-0.6639328474826377,False,0.325114653027705,-0.5215196865393504,"['Co', 'Li', 'O']"
mp-1235391,LiSm4Tm4O12,4,False,-1.825392698319785,-0.2979024968439892,-0.8682128617659177,False,3.078753076778262,-0.3906933923833746,"['Li', 'O', 'Sm', 'Tm']"
mp-24165,Li2H2SeO5,4,False,0.3339341008333132,0.4997762153087575,1.8369230781232544,True,-0.8784733532113403,-0.55014017810896,"['H', 'Li', 'O', 'Se']"
mp-756326,Li5Fe2P2(CO7)2,5,True,-0.369559316445874,-0.0099618803939867,-0.0556293511879752,False,-0.6729161738312307,0.3564752962827028,"['C', 'Fe', 'Li', 'O', 'P']"
mp-863368,LiFeSiO4,4,True,-0.6086792108215353,-0.0972178189241106,0.6954737971197584,True,-0.1222579040734867,-0.4055365881505888,"['Fe', 'Li', 'O', 'Si']"
mp-758137,Li6TiCr3(PO4)6,5,False,-0.7729002847406348,-0.1125700975505144,-0.8682128617659177,False,-0.5236364153686695,0.0792357627677152,"['Cr', 'Li', 'O', 'P', 'Ti']"
mp-1196988,K5Li2PrF10,4,False,-1.4887730575749674,0.6075977183912481,3.517070335141926,True,-0.4377315226881471,2.108816109999342,"['F', 'K', 'Li', 'Pr']"
mp-1275120,Li2MnOF3,4,True,-0.8616221173598637,0.3304326770343169,0.5128608708612211,True,-0.4590176248492029,-0.3504795923310939,"['F', 'Li', 'Mn', 'O']"
mp-754348,Li2CrFeO4,4,True,-0.2234049324306247,-0.0337461009905148,0.5015533592983086,True,0.2502903900358748,-0.5903944486241274,"['Cr', 'Fe', 'Li', 'O']"
mp-770678,Li2Cr2O7,3,False,0.1122923089943011,0.0448393666562911,0.7987310134876752,True,-0.5943671058457658,0.3023996828530153,"['Cr', 'Li', 'O']"
mp-756207,LiCoGeO4,4,True,0.1523302239945369,0.1921384627107008,0.2397878520993812,True,-0.0414238954716859,-0.7116058574823126,"['Co', 'Ge', 'Li', 'O']"
mp-1176719,LiV3O3F7,4,False,-1.009964741758184,0.0827621075699109,-0.0455406133264541,False,-0.4324122639553399,-0.1853647247603103,"['F', 'Li', 'O', 'V']"
mp-780179,Li7FeCo3(PO4)6,5,True,-0.3687106092842012,0.065248548613737,-0.8682128617659177,False,-0.5577701786751519,0.1610218680773331,"['Co', 'Fe', 'Li', 'O', 'P']"
mp-557229,Li2Mo4O13,3,False,-0.0746493768715252,-0.1840064225084631,0.7790952149652518,True,0.0098796307177995,1.07577445876773,"['Li', 'Mo', 'O']"
mp-973940,LiCd3,2,False,1.9771159292059024,-2.488008372622453,-0.8682128617659177,False,2.364243138960965,-1.0115835877897383,"['Cd', 'Li']"
mp-780192,Li5FeO4,3,True,-0.0231188799587974,0.4357115515538667,0.9048997448089162,True,-0.8347469056884714,-0.0537006058234914,"['Fe', 'Li', 'O']"
mp-772004,Li3Co3TeO8,4,True,0.3049733184699283,0.2679864560580315,-0.3324264007040678,False,0.6732830339204912,-0.781274706523651,"['Co', 'Li', 'O', 'Te']"
mp-1305656,Li2V3(OF)4,4,False,-0.9222817352942364,-0.0105168824711173,-0.0795985673153471,False,-0.2331727638555135,-0.3735318126547829,"['F', 'Li', 'O', 'V']"
mp-753783,Li5InO4,3,False,-0.0431683139777987,0.5961228111347532,1.1605713835008846,True,-0.3766439779779589,-0.5957110248664905,"['In', 'Li', 'O']"
mp-780723,Li6Mn3(PO4)4,4,True,-0.6726751569165502,-0.0370488847899753,1.4104199922862029,True,-0.6247728513253669,1.7565966081270303,"['Li', 'Mn', 'O', 'P']"
mp-753244,LiMn2F9,3,True,-0.6441393414505092,0.4631900580376585,0.6746869345460202,True,-0.6840661178000069,-0.2263479462294682,"['F', 'Li', 'Mn']"
mp-881189,Li4Fe3(CoO4)3,4,True,0.4137004084184935,0.1467207113156704,-0.8464103544410201,False,0.476368170618406,-0.6320002640723028,"['Co', 'Fe', 'Li', 'O']"
mp-675334,LiTi2O4,3,False,-1.2419614495602591,-0.3428061825165052,-0.8682128617659177,False,0.2183670391416355,-1.042108253457383,"['Li', 'O', 'Ti']"
mp-1031514,LiMg6AlO8,4,False,-1.120581993823023,0.2454619257848692,3.072421063084152,True,-0.2279381805970014,-0.8053558669196175,"['Al', 'Li', 'Mg', 'O']"
mp-849474,Li2Mn5(CuO6)2,4,True,0.260670234715765,-0.0118249894506174,-0.8233213637646531,False,0.4637370903245708,0.0733249802859108,"['Cu', 'Li', 'Mn', 'O']"
mp-1100716,Li9Mn2Co5O16,4,True,0.1784286630045456,0.2226725299519037,-0.8682128617659177,False,0.2560523178757495,-0.3993416760200489,"['Co', 'Li', 'Mn', 'O']"
mp-1078724,LiAsSe2,3,False,1.462014163110355,-1.3918660681282018,-0.3601196475856926,False,0.4457899311816186,-0.7174958650444073,"['As', 'Li', 'Se']"
mp-27045,LiCoPO4,4,True,-0.4336559722621248,0.004750635287449,0.974640684388558,True,0.0108007334011445,-0.4190666997634103,"['Co', 'Li', 'O', 'P']"
mp-775263,Li6CoNi9O20,4,True,0.778191489447947,0.377330952134001,-0.8682128617659177,False,0.5270789544428854,-0.2356287370120378,"['Co', 'Li', 'Ni', 'O']"
mp-1306033,Li3TiCr2O6,4,False,-0.6546831546882709,-0.1478970887320861,-0.7933936984304768,False,0.1595860448648454,-0.5921860954016728,"['Cr', 'Li', 'O', 'Ti']"
mp-762067,Li4Ti3V3(SbO8)2,5,False,-0.749497265670456,-0.1718140118480262,-0.1129794248034676,False,0.2706484975977729,0.663085481325912,"['Li', 'O', 'Sb', 'Ti', 'V']"
mp-757353,LiV(PO3)4,4,False,-0.6908523325439966,-0.1269071271485998,0.6714368713423098,True,-0.7789479902020295,0.1479416251219663,"['Li', 'O', 'P', 'V']"
mp-1175134,Li7Mn2(CoO4)3,4,True,0.1656126580812258,0.2228205884008148,-0.8682128617659177,False,0.1710959253788592,-0.6070513678239745,"['Co', 'Li', 'Mn', 'O']"
mp-780459,Li9Mn7Cr12O48,4,True,0.0659930795125995,-0.1032300555313499,-0.8313111024737778,False,-0.3136127283963668,1.448945867384823,"['Cr', 'Li', 'Mn', 'O']"
mp-756688,Li2MnO2F,4,True,-0.4881704853799058,0.2112346124355399,-0.2706074901834735,False,-0.2966688621872026,-0.543202806709762,"['F', 'Li', 'Mn', 'O']"
mp-695816,LiFeP2O7,4,True,-0.5195610448458761,-0.0713113457067128,0.7750326359606123,True,-0.6741883150761746,0.4173850234619202,"['Fe', 'Li', 'O', 'P']"
mp-974060,LiDy3,2,False,2.385936418560626,-4.964712876435157,-0.8682128617659177,False,2.2129259730082467,-0.9022344856979936,"['Dy', 'Li']"
mp-777678,LiFeF4,3,True,-0.8242096265993558,0.4492829957341159,1.9072734045535928,True,-0.8258929636015593,-0.180140721487352,"['F', 'Fe', 'Li']"
mp-1236533,K2LiH2(SeO3)2,5,False,0.5378549341997902,0.6172875159868714,-0.6170777696291301,False,-0.6520493634667383,-0.6489516768779396,"['H', 'K', 'Li', 'O', 'Se']"
mp-774588,Li4V3Ni3(SnO8)2,5,True,-0.075465534695469,0.0741830439055108,-0.8682128617659177,False,0.6827621756992266,-0.3837562540957079,"['Li', 'Ni', 'O', 'Sn', 'V']"
mp-19511,Li5FeO4,3,True,-0.0748798580796623,0.4220607094273233,1.2202912948690825,True,-0.6843895478331583,0.9355505730786188,"['Fe', 'Li', 'O']"
mp-1218762,Sr2Li7CuN4,4,False,1.5964823833972703,0.8365142800420077,-0.4836220493267281,False,-0.5744555073299752,-0.6687193034788175,"['Cu', 'Li', 'N', 'Sr']"
mp-775916,LiSnPCO7,5,False,-0.313783820114407,3.070432102013186e-05,1.4116387659875949,True,-0.3198324406248529,-0.4157003102774466,"['C', 'Li', 'O', 'P', 'Sn']"
mp-1174756,Li4MnCo2O7,4,True,0.1685929755986143,0.2215905809183297,-0.8682128617659177,False,0.2317277212285118,-0.5064548196989155,"['Co', 'Li', 'Mn', 'O']"
mp-1097460,LiScAg2,3,False,3.780588854106811,-1.5623100183683156,-0.8682128617659177,False,-2.2331210739998104,1.8727782929547303,"['Ag', 'Li', 'Sc']"
mp-774655,Li4CrTe2WO12,5,False,0.0106916660485835,0.1501857933859275,-0.8682128617659177,False,1.1904217967128703,-0.0054129759573741,"['Cr', 'Li', 'O', 'Te', 'W']"
mp-768782,Li3Mn2P2(CO7)2,5,True,-0.3217482623258019,-0.0928452835129959,-0.2182002210236255,False,-0.715532642182437,0.3382157487694838,"['C', 'Li', 'Mn', 'O', 'P']"
mp-754057,Li4Fe2Cu3Sb3O16,5,True,0.3021378269531031,0.2876155491368596,-0.8682128617659177,False,0.858728283314765,-0.3319189112175236,"['Cu', 'Fe', 'Li', 'O', 'Sb']"
mp-1184979,Li2AgPb,3,False,1.895914622582732,1.2863047028151398,-0.8682128617659177,False,2.385654362789998,-1.022552465342382,"['Ag', 'Li', 'Pb']"
mp-1326495,LiVSi3O8,4,False,3.2876716793271066,0.913723739240582,-0.8682128617659177,False,-0.6894274425688732,-0.2856654642990701,"['Li', 'O', 'Si', 'V']"
mp-1104791,Li(Mg2Si)4,3,False,2.074405378780393,1.267752966865091,-0.8682128617659177,False,-1.1891760235518762,-0.4756531014804915,"['Li', 'Mg', 'Si']"
mp-1174027,Li4MnCo3O8,4,True,0.2297802000985157,0.1888443181854009,-0.8682128617659177,False,0.4842480203913506,-0.8228574965538668,"['Co', 'Li', 'Mn', 'O']"
mp-1235249,LiSi2(AgO)8,4,False,0.7826524722161194,0.5985181049180911,-0.8682128617659177,False,1.5701701538566402,-0.4092099771765569,"['Ag', 'Li', 'O', 'Si']"
mp-1176692,LiFePCO7,5,True,0.0497300460326441,-0.0217538638032301,-0.7632629041460692,False,-0.7825124971623375,-0.4289171182860641,"['C', 'Fe', 'Li', 'O', 'P']"
mp-772493,Li3Co3(Ge3O8)2,4,True,0.0062632073695125,0.1515054451317674,-0.8682128617659177,False,0.8016906846529868,0.4855591413235191,"['Co', 'Ge', 'Li', 'O']"
mp-764506,Li3Fe8(BO3)8,4,True,-0.2940998553949661,-0.1965165245923189,0.0860869464238593,True,-0.364559568008749,0.1651054255152339,"['B', 'Fe', 'Li', 'O']"
mp-774171,Li3Mn2(SiO4)2,4,True,-0.6806573484868559,-0.0815327575519742,-0.8682128617659177,False,-0.5760266427835253,-0.1930732311303909,"['Li', 'Mn', 'O', 'Si']"
mp-1035344,LiMg14BO15,4,False,-0.8626302277852557,0.322559573407842,1.082095899061268,True,-0.350683340959584,-0.3493226376025831,"['B', 'Li', 'Mg', 'O']"
mp-24610,LiP(HO2)2,4,False,-0.2429198812725408,0.2449508512885825,3.0964579888616006,True,-1.1564099870644342,-0.2522430567460683,"['H', 'Li', 'O', 'P']"
mp-777729,Li8Mn7Fe(BO3)8,5,True,-0.5622053944089381,-0.1815208065290973,1.1395136823268366,True,-0.371924428828846,0.2125059820958792,"['B', 'Fe', 'Li', 'Mn', 'O']"
mp-772514,Na5LiFe2P2(CO7)2,6,True,-0.3368345591509752,0.0648318525428066,1.726285509896911,True,-0.5526176807401882,0.5443417238345364,"['C', 'Fe', 'Li', 'Na', 'O', 'P']"