material_id,formula_pretty,n_elements,contains_transition_metal,formation_energy_per_atom,energy_per_atom,band_gap,is_semiconductor,density,volume,elements
mp-757227,LiFePO4,4,True,-0.4638631119266331,-0.0586176434224828,1.4313422741600954,True,-0.2633345569377605,0.5646900948170043,"['Fe', 'Li', 'O', 'P']"
mp-13944,Li3AlN2,3,False,1.0219313364700788,0.2535729927259559,1.2728339833290838,True,-0.8987106465057915,-0.0298570395781244,"['Al', 'Li', 'N']"
mp-774912,Li4Nb2Co3Sb3O16,5,True,-0.118279068976626,0.0486063560333459,-0.8682128617659177,False,0.8620339228333277,-0.2754393491055822,"['Co', 'Li', 'Nb', 'O', 'Sb']"
mp-777667,LiV2O5,3,False,-0.5283887021441654,-0.226022972117691,0.2846116404505683,True,-0.2706376960673481,-0.1557130894695847,"['Li', 'O', 'V']"
mp-777475,Li3FeF6,3,True,-1.0831295453596543,0.5080062614056302,1.846334719484003,True,-0.5632758560592156,-0.6094776419388825,"['F', 'Fe', 'Li']"
mp-1176918,Li6V3P8O29,4,False,-0.7558656808211851,-0.0830682802749754,-0.0569158345394443,False,-0.7958270951220545,2.155674654267549,"['Li', 'O', 'P', 'V']"
mp-26299,LiSnPO4,4,False,-0.5281438833209423,0.1093137819275696,1.7686040411952373,True,-0.2877385069453255,0.0363279108232827,"['Li', 'O', 'P', 'Sn']"
mp-1100586,Li9Mn2Co5O16,4,True,0.1864450020243949,0.2247866665537527,-0.8682128617659177,False,0.2608308830005248,-0.4007887445022592,"['Co', 'Li', 'Mn', 'O']"
mp-767248,LiFeSiO4,4,True,-0.5661200867757894,-0.0859937674381461,-0.231539022088858,False,-1.081466737105433,0.8498958250857652,"['Fe', 'Li', 'O', 'Si']"
mp-757569,LiSn(PO3)4,4,False,-0.5396318752731801,-0.0052312211411565,-0.8682128617659177,False,-0.7858576288919806,0.4058199057316423,"['Li', 'O', 'P', 'Sn']"
mp-1273584,Li4NbCo3O8,4,True,-0.0841083371244232,0.0890296919246911,-0.3209157601909231,False,0.5482784452849244,-0.3452813593936831,"['Co', 'Li', 'Nb', 'O']"
mp-1213390,Li3Nd2(N3O10)3,4,False,0.8605911838157165,0.191360310038354,-0.3346608191566195,False,-0.7796571050627262,5.553601549894511,"['Li', 'N', 'Nd', 'O']"
mp-1235223,LiSc2(AgO2)2,4,False,-0.5554913746840859,0.1010479457748787,-0.8682128617659177,False,0.8345888263226392,-0.8768377279690518,"['Ag', 'Li', 'O', 'Sc']"
mp-757973,LiP4WO12,4,False,-0.6224365637442174,-0.1713137664170028,1.9212893021195985,True,-0.3966102570558659,1.839585884111063,"['Li', 'O', 'P', 'W']"
mp-1185297,LiAcO3,3,False,-0.4768630819744694,0.2016851415987781,-0.8682128617659177,False,2.6877100442127277,-1.064104187001349,"['Ac', 'Li', 'O']"
mp-1176218,Li9Mn2Co5O16,4,True,0.2132237847295536,0.2318489932005857,-0.8682128617659177,False,0.2508776654748271,-0.397769011404006,"['Co', 'Li', 'Mn', 'O']"
mp-756078,LiFePH2O5,5,True,-0.0521857048597878,0.1518811191080223,1.5103594358003307,True,-0.6597972863202312,-0.6283111065998119,"['Fe', 'H', 'Li', 'O', 'P']"
mp-1266318,LiFe(SiO3)2,4,True,-0.8401999267768391,-0.1601846009363612,1.1876552435318126,True,-0.6863872087921562,1.7884668573804543,"['Fe', 'Li', 'O', 'Si']"
mp-777670,Li4V3Cr3(SnO8)2,5,False,-0.454825287382365,-0.1462630287730153,-0.1808244941809444,False,0.5364990242940416,-0.3638883319960844,"['Cr', 'Li', 'O', 'Sn', 'V']"
mp-767624,Li9V5(SiO8)2,4,False,-0.6680443258875428,-0.0212308953162705,0.2439181407540978,True,-0.0771843275192662,-0.407959535375706,"['Li', 'O', 'Si', 'V']"
mp-775758,Li2FeF5,3,True,-0.9466887941943978,0.4963616384752563,1.656273731716959,True,-0.7188836721403815,-0.0574495827253593,"['F', 'Fe', 'Li']"
mp-1185369,LiLuIn2,3,False,1.681138466190409,-4.228763938390072,-0.8682128617659177,False,2.5290748521299324,-0.9760980850831766,"['In', 'Li', 'Lu']"
mp-1174782,Li4MnCo2O7,4,True,0.1463863238303288,0.2157340552410107,-0.8682128617659177,False,0.2942913544865926,-0.5227840670385278,"['Co', 'Li', 'Mn', 'O']"
mp-753950,Li2Co(CO3)2,4,True,0.0143957729825473,-0.0162367250956365,1.101190020383073,True,-0.8085230521057634,-0.5106105003775445,"['C', 'Co', 'Li', 'O']"
mp-584122,Li2Co3(P2O7)2,4,True,-0.4611160929295513,-0.0481184303735278,1.0483764933227615,True,-0.2262154215744588,0.2755117153016118,"['Co', 'Li', 'O', 'P']"
mp-771254,Li4Mn3V2Ni3O16,5,True,0.0260203605372341,-0.0066451441282863,-0.3746772223523175,False,0.3834021668009934,-0.4323567842549183,"['Li', 'Mn', 'Ni', 'O', 'V']"
mp-770536,Li2VH2OF5,5,False,-0.7201182596422605,0.4464981468224468,0.8398307710846098,True,-0.8502462847576597,0.1374751588573446,"['F', 'H', 'Li', 'O', 'V']"
mp-1174275,Li4Mn3O7,3,True,-0.1780429422140358,0.0460881165633557,-0.3765053829044046,False,0.0927969914817951,-0.4870890629769212,"['Li', 'Mn', 'O']"
mp-767675,Li4Ti4V(Fe2O9)2,5,True,-0.6273802494161772,-0.2294876380699249,0.2499442996109788,True,-0.0119706927796671,0.7699431961160222,"['Fe', 'Li', 'O', 'Ti', 'V']"
mp-760301,Li3V3P8O29,4,False,-0.592131646922217,-0.1004876696569989,-0.1042448799434931,False,-0.797170198329266,2.080295269612267,"['Li', 'O', 'P', 'V']"
mp-802090,Li4MnO2F3,4,True,3.3959014208197464,1.4932512431616214,-0.8682128617659177,False,-0.4387773290763027,-0.7060484862593529,"['F', 'Li', 'Mn', 'O']"
mp-778359,Li32Mn3Cr13O48,4,True,-0.2741890347159644,0.1016513299627333,-0.1685013378668718,False,-0.1064767490280952,1.2064531741744895,"['Cr', 'Li', 'Mn', 'O']"
mp-757514,Li4Cu2Si3O10,4,False,-0.5412001894867179,0.1500748859720621,-0.6187705108810638,False,-0.3471026788640449,-0.0537302722117715,"['Cu', 'Li', 'O', 'Si']"
mp-1235242,LiFe8(O3F)4,4,True,0.3013060479206893,0.031690099772491,-0.8682128617659177,False,0.3247574756829847,-0.4211655416961732,"['F', 'Fe', 'Li', 'O']"
mp-2251,Li3N,2,False,1.6408707343784392,0.7899547450514328,-0.2019499050050681,False,-1.6204378674587168,-1.112415633467914,"['Li', 'N']"
mp-769537,Li14MgCo13O28,4,True,0.2053494087548527,0.2477001921519326,-0.8682128617659177,False,0.7025829112905155,0.0959378747826636,"['Co', 'Li', 'Mg', 'O']"
mp-8179,LiTlO2,3,False,0.5664994850850279,0.6598505260527655,-0.5960200684550829,False,2.8926546597292857,-0.9491334370321488,"['Li', 'O', 'Tl']"
mp-766176,LiSiBiO4,4,False,-0.5988303619226549,0.0952184858711536,1.515979336756748,True,1.183786388819785,-0.1678781636116683,"['Bi', 'Li', 'O', 'Si']"
mp-1246961,Li3CuN2,3,False,1.9443200613258176,0.2978548622968228,-0.8682128617659177,False,-0.2759786001659648,0.0534201385104818,"['Cu', 'Li', 'N']"
mp-773423,Li2V3WO8,4,False,-0.4896191922837028,-0.323203469373742,0.3311281700536888,True,0.8230859842636412,0.6047138905722182,"['Li', 'O', 'V', 'W']"
mp-757239,LiMnPO4,4,True,-0.6375918816712743,-0.1331177781493994,1.144456486782482,True,-0.8918788272482931,2.4955419622785984,"['Li', 'Mn', 'O', 'P']"
mp-1175422,Li9Mn2Co5O16,4,True,0.1640499573176288,0.2188804563002467,-0.5279041604772968,False,0.2798591376310522,-0.4065017869842261,"['Co', 'Li', 'Mn', 'O']"
mp-1185197,Li3Ho,2,False,2.405831440643464,-0.7312428085835307,-0.8682128617659177,False,-0.2760323563064604,-0.704437837808933,"['Ho', 'Li']"
mp-850786,Li3Mn4(BO3)4,4,True,-0.5362407050538313,-0.2233047730716282,-0.8682128617659177,False,-0.4214930057295056,0.2242240644184089,"['B', 'Li', 'Mn', 'O']"
mp-1304218,Li3MgNi3O8,4,True,0.4724457296398716,0.4199469299427614,-0.5298677403295399,False,0.4212940145949742,-0.4735660175032251,"['Li', 'Mg', 'Ni', 'O']"
mp-758956,Li3Mn2(PO4)3,4,True,-0.5985582297919201,-0.065092720638029,-0.3152958592345053,False,-0.5063567428317934,1.4248162842388667,"['Li', 'Mn', 'O', 'P']"
mp-1173894,Li2CoO3,3,True,0.3213272403100402,0.3760977991464742,-0.8682128617659177,False,0.0605248781201163,-0.9364894472312566,"['Co', 'Li', 'O']"
mp-777689,Li32Mn5Cr11O48,4,True,-0.250439402433167,0.1108829460982848,-0.5783478497849018,False,-0.0840585943102102,1.1916380204857515,"['Cr', 'Li', 'Mn', 'O']"
mp-541669,LiFe2F6,3,True,-0.8211484772041836,0.3443299244219141,-0.3091342810774697,False,0.1230011716904727,-0.6711019970350084,"['F', 'Fe', 'Li']"
mp-1176043,Li9Mn2Co5O16,4,True,0.2288631235226563,0.2359735316575227,-0.8682128617659177,False,0.2286906615644919,-0.3909586149141463,"['Co', 'Li', 'Mn', 'O']"
mp-775290,Li4Nb2Cr3Cu3O16,5,False,-0.1671128650696653,-0.0416746455096096,-0.8682128617659177,False,0.5254939900972373,-0.3753000403988087,"['Cr', 'Cu', 'Li', 'Nb', 'O']"
mp-29719,LiNiN,3,True,2.0068549314216644,-0.2045302360604572,-0.8682128617659177,False,-0.2372866020047947,-1.1256870890592634,"['Li', 'N', 'Ni']"
mp-867255,LiZn2Au,3,False,1.7402111971671332,-3.137397609102784,-0.8682128617659177,False,3.8680908843635606,-1.0697645059959662,"['Au', 'Li', 'Zn']"
mp-1175283,Li7Mn4CoO12,4,True,-0.0482462125121906,0.1173705052604215,-0.6892562566115554,False,0.080831849745983,-0.5949538023281601,"['Co', 'Li', 'Mn', 'O']"
mp-1232974,LiAu4Se4(ClO3)4,5,False,1.109624091322447,0.7200381875395689,-0.8682128617659177,False,0.6841128745163805,0.2130188972416984,"['Au', 'Cl', 'Li', 'O', 'Se']"
mp-977440,LiTiPt2,3,False,1.1863769143616014,-6.729471752706408,-0.8682128617659177,False,6.1062794520185415,-1.072455680527184,"['Li', 'Pt', 'Ti']"
mp-1175612,Li9Mn2Co5O16,4,True,0.1593250253013884,0.2176343573401045,-0.3732553197006938,False,0.3048324904546764,-0.4138825394302963,"['Co', 'Li', 'Mn', 'O']"
mp-772508,LiFe3O4,3,True,0.3818693225624918,-0.0691723994660293,-0.8682128617659177,False,0.8716619881941764,-1.0118577334193326,"['Fe', 'Li', 'O']"
mp-1097513,LiGa2Co,3,True,3.904545221718106,-0.2246471252281894,-0.8682128617659177,False,-2.2317629086978195,1.1367732912614632,"['Co', 'Ga', 'Li']"
mp-757655,Li17Ni11O28,3,True,0.4810445291053766,0.4502323485086165,-0.5381960272890498,False,0.3915748083646294,0.1018521636024034,"['Li', 'Ni', 'O']"
mp-569112,Li3CaMnN3,4,True,1.2936914628358966,0.3599554891593531,-0.8186493979093187,False,-0.5398502321080095,-0.7238209493074914,"['Ca', 'Li', 'Mn', 'N']"
mp-771836,Li2ScFe(SiO3)4,5,True,-1.1793690125910947,-0.2186228554961022,1.1326750076690275,True,-0.4231898484470053,-0.5937153020809622,"['Fe', 'Li', 'O', 'Sc', 'Si']"
mp-1175126,Li7Mn2(CoO4)3,4,True,0.1464353891784431,0.2177629971474408,-0.8682128617659177,False,0.2154428111925961,-0.6173235886651034,"['Co', 'Li', 'Mn', 'O']"
mp-754443,Li4Cr3NiO8,4,True,-0.17212798563727,0.0071027947146692,-0.8682128617659177,False,0.3346132248889921,-0.8202463261036894,"['Cr', 'Li', 'Ni', 'O']"
mp-757622,Li3V3P8O29,4,False,-0.6058430568877288,-0.1041037584475631,-0.231132764188394,False,-0.8406750122298217,2.166824361220256,"['Li', 'O', 'P', 'V']"
mp-1236169,KLiNi2H3(SeO5)2,6,True,0.7099158064568788,0.4851023124122777,-0.7174234710437215,False,-0.1897616196036008,-0.5681882182050841,"['H', 'K', 'Li', 'Ni', 'O', 'Se']"
mp-774294,Li4Mn2Nb3Co3O16,5,True,-0.26820898850892,-0.1571302646570657,-0.4560642217452588,False,0.5714133426244594,-0.3538417025651855,"['Co', 'Li', 'Mn', 'Nb', 'O']"
mp-754232,Li4Co3WO8,4,True,0.083706393054031,0.0814808994684685,0.4427136733811156,True,1.1806115682126537,-0.7891604782384434,"['Co', 'Li', 'O', 'W']"
mp-1235226,LiVFe(P2O7)2,5,True,-0.6299863250737241,-0.1526855722018536,0.2148707008709267,True,-0.6144234385621684,-0.4565477047135867,"['Fe', 'Li', 'O', 'P', 'V']"
mp-1235210,Ba6LiNb2Ir(ClO6)2,6,False,-0.958739505793395,0.0100268990906465,0.2748614508394333,True,0.8618585064811256,0.1625576230145799,"['Ba', 'Cl', 'Ir', 'Li', 'Nb', 'O']"
mp-763252,LiSbWO6,4,False,-0.1017681814585029,-0.0575838596437727,1.0108653471799252,True,0.7656997159212323,-0.4377262055535666,"['Li', 'O', 'Sb', 'W']"
mp-801636,Li2NiP2O7,4,True,3.42977626279069,1.1118776499330416,-0.8682128617659177,False,-0.4394947157617964,-0.4739018148858611,"['Li', 'Ni', 'O', 'P']"
mp-764842,LiVOF3,4,False,-1.0761206262561962,0.2067817967284826,0.6119200889243435,True,-0.4707004985926679,-0.414246500794839,"['F', 'Li', 'O', 'V']"
mp-1111657,K2LiTmCl6,4,False,-0.3686038971501883,-1.0670414132509405,2.561077785700215,True,-0.6241859716204822,-0.4436908026253044,"['Cl', 'K', 'Li', 'Tm']"
mp-16872,RbLi2Ga2(BO3)3,5,False,-0.6899540717216047,0.0694877537584676,1.7931826441733052,True,-0.3242819136290857,-0.0187714879171811,"['B', 'Ga', 'Li', 'O', 'Rb']"
mp-643276,LiMg2H7Ru,4,False,1.6760756783661876,0.9729048050324044,1.2653182121705016,True,-0.7313676645911557,-0.6474160623712494,"['H', 'Li', 'Mg', 'Ru']"
mp-26337,Li3Cr3(PO4)4,4,False,-0.7142343153433764,-0.1618940987335843,0.4281560986144913,True,-0.4791230337361,0.5213906892195006,"['Cr', 'Li', 'O', 'P']"
mp-1666672,Li7Mn5O12,3,True,-0.1797839348896426,0.0581555584732196,-0.4704863772117283,False,0.0699574203406439,0.0437265698918751,"['Li', 'Mn', 'O']"
mp-861602,Li2VFe(PO4)2,5,True,-0.6419974517188175,-0.1183193936092544,0.8646125030129087,True,-0.24163844633303,-0.3592298907073541,"['Fe', 'Li', 'O', 'P', 'V']"
mp-1302578,Li4Mn3NbO8,4,True,-0.3921400034146086,-0.1025682063576736,-0.33567646390778,False,0.2783222626595122,-0.2863975100369633,"['Li', 'Mn', 'Nb', 'O']"
mp-1173963,Li5Co3O8,3,True,0.2992601251325531,0.3386973581376425,-0.8682128617659177,False,0.1928561888306012,-0.8350579880217466,"['Co', 'Li', 'O']"
mp-777651,Li3Co2(SiO4)2,4,True,-0.4520900073849276,0.0572260174117025,-0.8268422655686746,False,-0.4825453101186781,-0.215983010373002,"['Co', 'Li', 'O', 'Si']"
mp-1080534,Cs2Li3I5,3,False,0.4844773931801713,1.2265804243878045,1.7432806320663183,True,0.0869735456369725,-0.0998448393846252,"['Cs', 'I', 'Li']"
mp-753936,Li2FeSiO5,4,True,-0.3634210942711086,0.0742842079287516,-0.8682128617659177,False,-0.3852007206629336,-0.7010028002867562,"['Fe', 'Li', 'O', 'Si']"
mp-1175271,Li7Mn4CoO12,4,True,-0.0700698685344294,0.1116149864545766,-0.7887217325751422,False,0.1262878241835486,0.0260536793218287,"['Co', 'Li', 'Mn', 'O']"
mp-1207005,LiTaSe2,3,False,1.0822621410288604,-3.949879637748668,-0.8682128617659177,False,2.641733065611216,-1.0227710490674775,"['Li', 'Se', 'Ta']"
mp-26261,Li2Cu(PO3)4,4,False,-0.5421072962417355,0.0373681931900284,-0.1720899493209692,False,-0.664775453210685,0.130132084271882,"['Cu', 'Li', 'O', 'P']"
mp-757547,Li2Sn3(P2O7)2,4,False,-0.4859580082562314,0.063553016119482,1.219343359768,True,-0.0935260618047001,0.6686929500772817,"['Li', 'O', 'P', 'Sn']"
mp-1245766,Li3OsN2,3,False,1.9545744876859503,0.4279207448249363,-0.8682128617659177,False,2.027780309380835,0.1142164570837486,"['Li', 'N', 'Os']"
mp-756343,Li3Cu4NiO8,4,True,0.7293862294539767,0.5072824261754804,-0.8682128617659177,False,0.8733049700995477,-0.8002515206076317,"['Cu', 'Li', 'Ni', 'O']"
mp-777339,LiV3OF11,4,False,-1.0789682419852549,0.2538983832795227,-0.86665553981414,False,-0.5774481084766696,0.0398134684453683,"['F', 'Li', 'O', 'V']"
mp-768487,Li3Mn(BO3)2,4,True,-0.5274117103507663,-0.0011553710726067,0.0852067209728549,True,-0.7199913421511398,0.1488454634349215,"['B', 'Li', 'Mn', 'O']"
mp-779775,Li24Ti11CrO36,4,False,-1.0385568857516594,-0.0264773543583381,0.0351015799156357,True,-0.2638097713147593,0.6494227490444124,"['Cr', 'Li', 'O', 'Ti']"
mp-757055,K2Li2CoO4,4,True,0.3414010696633338,0.5647287626839633,-0.6247289600878675,False,-0.6685343799509131,0.2608707408218634,"['Co', 'K', 'Li', 'O']"
mp-756989,Li4Mn3Fe3(CuO8)2,5,True,0.3174379824940151,0.0898959178796355,-0.8682128617659177,False,0.3851290337226782,-0.4143668611123136,"['Cu', 'Fe', 'Li', 'Mn', 'O']"
mp-861933,LiTmHg2,3,False,1.6331146854431506,-7.913217999112263,-0.8682128617659177,False,5.061284858841756,-0.9936132513086048,"['Hg', 'Li', 'Tm']"
mp-1223507,Li5CrFe4(P2O7)5,5,True,-0.6341695993341209,-0.1077778307671289,0.8038769468935516,True,-0.5393678001728738,2.6048636848011326,"['Cr', 'Fe', 'Li', 'O', 'P']"
mp-766469,LiMn2(PO4)2,4,True,-0.561660913710343,-0.186158149545477,-0.7711849332051158,False,-0.7083861797925731,0.9478751231784738,"['Li', 'Mn', 'O', 'P']"
mp-887423,Li3MnV(PO4)3,5,True,-0.7035937905346902,-0.0916604253031507,-0.4484807409365987,False,-0.3978290861099004,0.0127450125503995,"['Li', 'Mn', 'O', 'P', 'V']"
mp-28146,LiGa5O8,3,False,-0.3731947193552314,0.2666214253285601,1.0795229323583295,True,1.353144476934539,0.3684421687597373,"['Ga', 'Li', 'O']"
mp-766574,Li7(NiO2)10,3,True,0.7303787015276568,0.3973007226515553,-0.8682128617659177,False,0.6357849163240018,-0.2634458709876774,"['Li', 'Ni', 'O']"
mp-675488,Li6I3N,3,False,1.040285108540878,1.1061960112641465,0.7273650423061777,True,-0.2506555055372554,-0.6183038167444055,"['I', 'Li', 'N']"
mp-1177618,Li3MnCr3O8,4,True,-0.3660617325564985,-0.1716184699024426,0.2945649590119348,True,0.1957453425326695,-0.8114774263048873,"['Cr', 'Li', 'Mn', 'O']"
mp-777828,Li3MnV(PO4)3,5,True,-0.7074300747644539,-0.0926721625669013,-0.665219330834106,False,-0.5870419574401786,0.1358858587706468,"['Li', 'Mn', 'O', 'P', 'V']"
mp-1177598,Li3V3P8O29,4,False,-0.6038251228789706,-0.1035715718549716,-0.452678739241392,False,-0.8179184413023108,2.121007289191013,"['Li', 'O', 'P', 'V']"
mp-768862,Li5Fe2P2(CO7)2,5,True,-0.3714112677615529,-0.0104502926295005,0.0670605347521324,True,-0.6791653704527556,0.361920878016283,"['C', 'Fe', 'Li', 'O', 'P']"
mp-1036220,LiMg14MnO16,4,True,-1.0399525687148328,0.2393173987243044,-0.3582237773835283,False,-0.141739714062591,-0.3462917285300559,"['Li', 'Mg', 'Mn', 'O']"
mp-777467,LiMn2(BO3)2,4,True,-0.493155037710858,-0.2604313133981004,-0.5646027908192054,False,-0.4312225488128322,0.9335330668094644,"['B', 'Li', 'Mn', 'O']"
mp-780707,Li4V5Cr2O12,4,False,-0.4509662162861578,-0.2420532583603316,-0.2140699323689088,False,0.3180835617253596,0.0746217053307287,"['Cr', 'Li', 'O', 'V']"
mp-1211168,Li4Be3P3IO12,5,False,-0.9160976770223354,0.0861040460371196,2.772602732541769,True,-0.6612028560128272,0.3820037435847116,"['Be', 'I', 'Li', 'O', 'P']"
mp-1100592,Li9Mn2Co5O16,4,True,0.1603417202557356,0.2179024887166067,-0.4549808673440209,False,0.2519487278360647,-0.3980950092095455,"['Co', 'Li', 'Mn', 'O']"
mp-30768,Li7Sn3,2,False,1.738586646901852,1.260550463018702,-0.8682128617659177,False,-0.0176364024160038,-0.1959064108512685,"['Li', 'Sn']"
mp-1210904,LiMnAs2,3,True,2.418430708917886,0.6959996028595478,-0.8682128617659177,False,0.5582657234397803,-1.0167157428914504,"['As', 'Li', 'Mn']"
mp-1296460,Li2SiNiO4,4,True,-0.5061692170404456,0.1425720464762693,1.682612785597038,True,-0.4280202972725171,-0.2228430139528409,"['Li', 'Ni', 'O', 'Si']"
mp-757350,Li3VOF5,4,False,-1.091014718351355,0.400081063376972,1.156237965895936,True,-0.9278289434086304,-0.4966068850784063,"['F', 'Li', 'O', 'V']"
mp-1235376,LiLa2Fe2(TeO6)2,5,True,-0.3691599934328554,7.888306533982765e-05,-0.3354056253074701,False,1.1706883319904169,-0.5026634377644977,"['Fe', 'La', 'Li', 'O', 'Te']"
mp-755410,Li2(NiO2)3,3,True,0.8057596654754234,0.410088044073499,-0.8682128617659177,False,0.4288426966672169,-0.6136496411980761,"['Li', 'Ni', 'O']"
mp-1096094,LiMgAg2,3,False,3.2320822110787684,1.7219742277370975,-0.3469839754706929,False,-2.2327899349352265,1.629294921838969,"['Ag', 'Li', 'Mg']"
mp-1236376,LiTa2Te4Br10O,5,False,0.8281673241428603,0.7975280189527431,-0.7025950576767885,False,0.3570531810515546,0.6582382855401763,"['Br', 'Li', 'O', 'Ta', 'Te']"
mp-774657,Li4Co3Ni2Sn3O16,5,True,0.3232504387708161,0.2583184473592508,-0.2781232613420555,False,0.9753482108685924,-0.3781691940666395,"['Co', 'Li', 'Ni', 'O', 'Sn']"
mp-773194,Li4Mn5V3O16,4,True,-0.2922849982800489,-0.1949152002343812,-0.4479390637359794,False,0.177997747856264,-0.3889831188762436,"['Li', 'Mn', 'O', 'V']"
mp-1013850,LiV2P2O9,4,False,-0.7661340781973066,-0.2267639542572342,0.173770943273992,True,-0.4724990360218039,0.7451287753735002,"['Li', 'O', 'P', 'V']"
mp-772634,NaLi2MnPCO7,6,True,-0.4484253831254507,0.0009684167798246,1.687487880402605,True,-0.6367339823628315,0.453219420254709,"['C', 'Li', 'Mn', 'Na', 'O', 'P']"
mp-1276282,Li2AlCoO4,4,True,-0.417600589846842,0.1777703888619736,-0.8682128617659177,False,0.155074583373526,-0.449219488429936,"['Al', 'Co', 'Li', 'O']"
mp-774623,Li4Sn(PO4)2,4,False,-0.6511533222387533,0.1665915672902697,1.3024231004128743,True,-0.5610067910398318,0.9778483733417946,"['Li', 'O', 'P', 'Sn']"
mp-754492,Li2V3CrO8,4,False,-0.4447417957839725,-0.2428707511545654,-0.7836435088193431,False,0.1141587762703609,-0.8141627018866061,"['Cr', 'Li', 'O', 'V']"