material_id,formula_pretty,n_elements,contains_transition_metal,formation_energy_per_atom,energy_per_atom,band_gap,is_semiconductor,density,volume,elements
mp-1212378,Li3CoO6,3,True,2.223090817045676,0.8905282724023799,-0.8682128617659177,False,-2.384133699240625,3.273260017995284,"['Co', 'Li', 'O']"
mp-759521,Li4V(CO3)4,4,False,-0.1184725397438919,-0.0538956857876658,0.0057155917820786,True,-0.9689857772593518,1.4175927978501277,"['C', 'Li', 'O', 'V']"
mp-15796,LiHoSe2,3,False,0.0125574052988093,-3.092401067495554,0.1967922243002817,True,1.5182877795286076,-0.9754501554332332,"['Ho', 'Li', 'Se']"
mp-758752,Li5Mn5O12,3,True,-0.0547913980981179,0.0111818732338904,-0.609291159870238,False,0.1694967108379622,-0.0371609201762302,"['Li', 'Mn', 'O']"
mp-1176656,LiMn2O4,3,True,-0.0534648052854751,-0.1343597230811089,-0.1557042140022579,False,0.1741967244396493,-0.8057975447935367,"['Li', 'Mn', 'O']"
mp-20801,LiIn2Pd,3,False,1.6001046828460033,-3.153418538684715,-0.8682128617659177,False,2.8883516691723625,-1.0342833056799434,"['In', 'Li', 'Pd']"
mp-769329,RbLi2B3Sb2O9,5,False,-0.4070656422262823,0.1065140667284147,0.939770214598737,True,-0.0619596359199923,0.1233871281599186,"['B', 'Li', 'O', 'Rb', 'Sb']"
mp-36063,Li7MnAs4,3,True,1.6627921354997022,0.980986679410702,-0.8682128617659177,False,-0.4974739375656286,0.0478986052327083,"['As', 'Li', 'Mn']"
mp-761056,Li8Co(O2F)2,4,True,-0.1854357485756554,0.5995929547023099,0.8306899683241713,True,-0.7527894159321237,-0.4474002058623489,"['Co', 'F', 'Li', 'O']"
mp-1176176,Li9Mn2Co5O16,4,True,0.2077552278728326,0.2304067792196829,-0.8682128617659177,False,0.2379253834637111,-0.3938066179273702,"['Co', 'Li', 'Mn', 'O']"
mp-770611,Li2CoH8(SO6)2,5,True,0.3976939853699825,0.4161411668882169,0.93970250494866,True,-0.901437821283084,0.1068063756090234,"['Co', 'H', 'Li', 'O', 'S']"
mp-26301,LiBi2(PO4)3,4,False,-0.3401528378024039,0.0738929663435181,-0.7027981866270199,False,0.3562367398508807,1.9407175218388333,"['Bi', 'Li', 'O', 'P']"
mp-757960,LiNiPO4,4,True,-0.3325541788267903,0.0875070464140439,1.3216526410348337,True,-0.5575835629720743,-0.1820849567501307,"['Li', 'Ni', 'O', 'P']"
mp-762391,Li2(NiO2)3,3,True,0.7590647958671008,0.3977732788529824,-0.8682128617659177,False,0.5582810189944799,-0.9390758114265452,"['Li', 'Ni', 'O']"
mp-756390,Li3MnCu3O8,4,True,0.5607664850868002,0.3950992019514642,-0.8321913279247831,False,0.5032048286007637,-0.8181253260002095,"['Cu', 'Li', 'Mn', 'O']"
mp-1177967,Li2FeCoO4,4,True,0.283544850730367,0.1913340757830718,-0.510773619007735,False,0.57566601619417,-0.8374331703970507,"['Co', 'Fe', 'Li', 'O']"
mp-756292,Li2Fe3CoO8,4,True,0.41816502208822,0.0750892088322941,-0.8682128617659177,False,0.3797758361754988,-0.420063800886288,"['Co', 'Fe', 'Li', 'O']"
mp-1235761,LiTe4H4(O3F4)2,5,False,0.1183092173646522,0.6482783059744397,-0.3450203956184505,False,0.0406574982939502,-0.2701595079333264,"['F', 'H', 'Li', 'O', 'Te']"
mp-770357,Li2AlNiO4,4,True,-0.2559149158798209,0.269492868343559,0.4062181719894384,True,-0.3774811692084829,-0.2535608330038172,"['Al', 'Li', 'Ni', 'O']"
mp-1185302,LiBO3,3,False,0.8083809952623389,0.3921884718442352,-0.8682128617659177,False,-0.4924786725538872,-1.1335534441248671,"['B', 'Li', 'O']"
mp-781608,LiMn2(BO3)2,4,True,-0.5017472362121174,-0.262697320523908,-0.5918220701502896,False,-0.4129960026099696,0.1970498766676806,"['B', 'Li', 'Mn', 'O']"
mp-38468,Li7Ti12O24,3,False,-1.2946829583817572,-0.3334510226409813,-0.8682128617659177,False,0.1489114446703341,-0.0227899656135089,"['Li', 'O', 'Ti']"
mp-1222604,Li2TlCd,3,False,1.8710014117521223,-3.629872988114217,-0.8682128617659177,False,2.207004171162639,-1.013211333711057,"['Cd', 'Li', 'Tl']"
mp-772972,Li2Ti2O5,3,False,-1.2387193460562245,-0.2176698117056924,1.649028799158686,True,-0.8104934646860108,0.1942905561677986,"['Li', 'O', 'Ti']"
mp-1185410,LiRe3,2,False,2.399363790725032,-9.406699581263222,-0.8682128617659177,False,8.520909483093618,-1.0736560530791974,"['Li', 'Re']"
mp-768982,Li7NbS6,3,False,0.6586422944673835,0.7115740281421788,0.6039303502152193,True,-1.1308258632405488,0.3161318492028562,"['Li', 'Nb', 'S']"
mp-753666,Li4Nb3Fe3(SnO8)2,5,True,-0.3884845947556171,-0.123618205559213,-0.711938989387459,False,0.7359256042020896,-0.2817411084443034,"['Fe', 'Li', 'Nb', 'O', 'Sn']"
mp-559708,Li6ZrBeF12,4,False,-1.6301162853233075,0.4312521073524734,3.322608220119857,True,-0.5552508380455182,-0.0235826431550083,"['Be', 'F', 'Li', 'Zr']"
mp-1235553,Ba2LiEu(CuO2)4,5,False,0.0242531382719146,0.2392055656861635,-0.8682128617659177,False,1.5595389931820312,-0.5949515872533061,"['Ba', 'Cu', 'Eu', 'Li', 'O']"
mp-773023,Li2Cr2(Si2O5)3,4,False,-1.0010667116764524,-0.2328071313060356,0.2695123884833255,True,-0.7392078388159481,2.5782365510130454,"['Cr', 'Li', 'O', 'Si']"
mp-558102,KLiSi2O5,4,False,-1.1024299061961542,0.0026108405754394,2.3187449480734794,True,-0.8640108261812454,-0.5275130970436106,"['K', 'Li', 'O', 'Si']"
mp-1295199,Li5Fe3(SbO5)2,4,True,0.0700884475111794,0.2125166291230623,-0.8682128617659177,False,0.6858116703743343,-0.6299023451111495,"['Fe', 'Li', 'O', 'Sb']"
mp-1185235,Li3Rh,2,False,2.1485666074608454,-0.1647473210704972,-0.8347642946277213,False,0.0816659128408752,-1.0849404615391764,"['Li', 'Rh']"
mp-780123,LiMn3(BO3)3,4,True,-0.4698353643818524,-0.2891330489624131,-0.7109910542863759,False,-0.4318889297638068,-0.1626794588262878,"['B', 'Li', 'Mn', 'O']"
mp-1304043,Li5Mn2CoO8,4,True,-0.0504273686655171,0.1729006956192569,-0.2385808256968994,False,0.1250487123108197,-0.4306766419023988,"['Co', 'Li', 'Mn', 'O']"
mp-755337,Li4NbFe3O8,4,True,-0.2034543544601065,-0.0151601056400385,0.8558102485028576,True,-0.1530998475182756,-0.6714282924513814,"['Fe', 'Li', 'Nb', 'O']"
mp-1639439,Li2Ni2SbO6,4,True,0.2931377703448475,0.3184471589917672,-0.4152353027486328,False,0.7512193607840145,-0.5512878006758206,"['Li', 'Ni', 'O', 'Sb']"
mp-758890,LiAg2F4,3,False,0.2903843716222857,-0.7722696502800518,-0.8682128617659177,False,0.6940683883008254,-0.6398950208258494,"['Ag', 'F', 'Li']"
mp-570502,Cs2LiCr(CN)6,5,False,1.8697551146689109,-0.1221135060917911,0.4002597227826346,True,-0.8402044506792028,0.6104962937039743,"['C', 'Cr', 'Cs', 'Li', 'N']"
mp-756232,Li4FeO3F,4,True,-0.2128365616156919,0.4231512460548209,0.8676594372663889,True,-0.8277915647506171,-0.6634180494152717,"['F', 'Fe', 'Li', 'O']"
mp-776761,LiCr(SO4)2,4,False,-0.1154848229946672,0.0715262774272037,0.5947218378047037,True,-0.6577631109130236,0.0669953199292289,"['Cr', 'Li', 'O', 'S']"
mp-1176246,Li9Mn2Co5O16,4,True,0.1834858036983029,0.2240062417890528,-0.5655507259202887,False,0.2786831234850871,-0.4061509616041555,"['Co', 'Li', 'Mn', 'O']"
mp-1282858,Li3Co3SbO8,4,True,0.2786912818521395,0.2419886598906888,-0.2633625576251993,False,0.653405494766512,-0.3305051727868572,"['Co', 'Li', 'O', 'Sb']"
mp-757761,Li3V(Si2O5)3,4,False,-1.156527358208982,-0.1773235600601651,0.7702252508051225,True,-0.76394379802349,2.293283495749652,"['Li', 'O', 'Si', 'V']"
mp-34541,Li31Zr2P13,3,False,1.5097391168981291,1.0117664464884657,-0.8682128617659177,False,-1.214633024027611,0.7451579498637309,"['Li', 'P', 'Zr']"
mp-759598,K8Li13(FeO4)4,4,True,0.2052407923066291,0.5532027831060936,0.3674882521452108,True,-0.710620856466757,0.3358202429045984,"['Fe', 'K', 'Li', 'O']"
mp-1176847,Li8CoO5F,4,True,-0.1331278755524443,0.5546987405111576,0.2886742194552078,True,-0.9024112879583795,-0.38573885520699,"['Co', 'F', 'Li', 'O']"
mp-757639,LiTi(PO3)4,4,False,-0.8109941299319836,-0.139435520716091,-0.7509397478319966,False,-0.9799268389217982,0.3172138442567505,"['Li', 'O', 'P', 'Ti']"
mp-1100496,Li9Mn7O16,3,True,-0.1689806153014813,0.0390831665256447,-0.0725567637073056,False,0.0909551086681009,-0.3707265838028304,"['Li', 'Mn', 'O']"
mp-770572,Li2FeH12(SO7)2,5,True,0.4491311281082354,0.4350450448238277,1.920544495968748,True,-1.1748308400101524,0.5407962727231529,"['Fe', 'H', 'Li', 'O', 'S']"
mp-1177932,Li2MnV(P2O7)2,5,True,-0.7458929093272737,-0.148224115470801,-0.5325084166825548,False,-0.582288944541157,0.3190764120847694,"['Li', 'Mn', 'O', 'P', 'V']"
mp-1666120,LiCrPO4,4,False,-0.6512166324069207,-0.1570641274817261,0.816132393557547,True,-0.3389785034915586,-0.3280680103131924,"['Cr', 'Li', 'O', 'P']"
mp-8390,LiYbO2,3,False,-1.4766889532274312,-2.5394908884303597,-0.8682128617659177,False,2.5163847025340216,-0.9675107536718474,"['Li', 'O', 'Yb']"
mp-775900,NaLiCu(PO3)3,5,False,-0.4354141027393094,0.1061133456092734,0.0846650437722362,True,-0.5160871049869092,0.8891166564426526,"['Cu', 'Li', 'Na', 'O', 'P']"
mp-755642,Li3VS4,3,False,0.7162596294810055,0.5901248638100616,0.2801428035454653,True,-1.192844853071822,-0.2631297337480615,"['Li', 'S', 'V']"
mp-758492,LiSb3(PO5)2,4,False,-0.2826455400684116,0.1112821638308206,1.1336229427701103,True,0.5393601655582618,-0.6128799185450773,"['Li', 'O', 'P', 'Sb']"
mp-1147594,Li6Zn3(PS4)4,4,False,1.07018173309942,0.7893830104668281,0.8820815927328587,True,-0.9013503078773,5.744098062531139,"['Li', 'P', 'S', 'Zn']"
mp-1174374,Li7Co5O12,3,True,0.3043138560459893,0.3084494556195056,-0.6576358500254467,False,0.3322511777846316,-0.6338241829797381,"['Co', 'Li', 'O']"
mp-859097,Li5NiP3O11,4,True,-0.6453932153448186,0.1209296051548406,1.5195679482108462,True,-0.6201133486207935,-0.0075220797025918,"['Li', 'Ni', 'O', 'P']"
mp-757589,Li3V3P8O29,4,False,-0.605105978004063,-0.1039093697817958,-0.1852256214359697,False,-0.8570929937008239,2.200663441456796,"['Li', 'O', 'P', 'V']"
mp-1247418,Li2MnN2,3,True,1.5386837512962468,0.2236016537086428,-0.5351490930355709,False,-0.0106234809236804,-1.1138146092740762,"['Li', 'Mn', 'N']"
mp-763099,Li2VO2F,4,False,-0.7004328986190322,0.1590321773382265,-0.070728603155218,False,-0.2201144098824225,-1.0758244095602485,"['F', 'Li', 'O', 'V']"
mp-775511,KLi(WO3)6,4,False,-0.240353940591148,-0.4201050325222876,-0.8682128617659177,False,1.654970049410432,-0.1310099025741387,"['K', 'Li', 'O', 'W']"
mp-772930,Na2LiFePCO7,6,True,-0.344959000528514,0.0563595016006398,1.734478377556266,True,-0.5842901787293517,0.5201757105560499,"['C', 'Fe', 'Li', 'Na', 'O', 'P']"
mp-1095724,BaLi2Pb,3,False,3.4428654121862667,1.7613010162331404,-0.6852613872569935,False,-2.2350141604715708,2.956714201564193,"['Ba', 'Li', 'Pb']"
mp-1308681,Li3Fe3O8,3,True,0.4077440863353468,0.1806176491630134,-0.7252777904526908,False,-0.0695934509372126,-0.406113055327353,"['Fe', 'Li', 'O']"
mp-1201317,LiV(CuO3)2,4,False,0.4975544280124063,0.2517611538124823,-0.8682128617659177,False,0.0708992910822361,0.1593250840365956,"['Cu', 'Li', 'O', 'V']"
mp-1222368,LiVMoO6,4,False,-0.2249184130735706,-0.1816979331125406,0.9872346793029398,True,0.002328918649805,-0.9190348208924932,"['Li', 'Mo', 'O', 'V']"
mp-753162,Li2BiO3,3,False,0.1343336352016449,0.4836255344305469,-0.8682128617659177,False,1.5943115233860103,-1.0263894153138773,"['Bi', 'Li', 'O']"
mp-774581,Li4Ti3V2Cr4O18,5,False,-0.7542561364321699,-0.3183621075878903,0.2055267691602555,True,0.0280726069166286,0.7070921880957983,"['Cr', 'Li', 'O', 'Ti', 'V']"
mp-12283,Li5Tl2,2,False,1.862176011805185,-2.8733052588231764,-0.8682128617659177,False,1.3183189576895158,-0.8664407046262192,"['Li', 'Tl']"
mp-757413,Li2Si4Ni4O13,4,True,-0.4970930363918975,-0.017385980686393,1.472035773856566,True,0.1044028539596494,0.158713114663147,"['Li', 'Ni', 'O', 'Si']"
mp-558917,LiMoIO6,4,False,0.3788289998987226,0.2212479762274808,0.6440144630609942,True,0.2696618118492483,-0.4859241511144004,"['I', 'Li', 'Mo', 'O']"
mp-1368182,Li3Ni5OF11,4,True,0.1985897357782749,0.7115779708956674,0.5427208265453204,True,0.3191281166760567,-0.6264533496054112,"['F', 'Li', 'Ni', 'O']"
mp-743640,Li3La8Ti9Cr3O36,5,False,-1.595472182122498,-0.4722223151087277,0.1107332590520052,True,1.0855608880904102,0.8098814571256774,"['Cr', 'La', 'Li', 'O', 'Ti']"
mp-757095,Li2Fe(PO4)2,4,True,-0.4585220438538022,0.0183692531135761,-0.8682128617659177,False,-0.6383200991347379,-0.7928622992113973,"['Fe', 'Li', 'O', 'P']"
mp-890597,Li2MnVP2(O4F)2,6,True,3.157859236019256,0.9878197789701416,-0.8682128617659177,False,-0.4170360277262218,-0.1717920567600566,"['F', 'Li', 'Mn', 'O', 'P', 'V']"
mp-760210,NaLi2NiPCO7,6,True,-0.3255190888470415,0.108862605741846,1.8472826545850856,True,-0.4182250006140269,0.2995097748065977,"['C', 'Li', 'Na', 'Ni', 'O', 'P']"
mp-555869,LiV2O5,3,False,-0.4724094391628584,-0.2112596482961488,0.1756668134761566,True,-0.4493422878159584,-0.6499753519195312,"['Li', 'O', 'V']"
mp-780191,Li4Co3OF11,4,True,-0.5292744108682472,0.5587149105260697,-0.4177405598014937,False,-0.1878519606745859,-0.644500692103394,"['Co', 'F', 'Li', 'O']"
mp-1280554,Li2MnO2F,4,True,-0.5653946907069185,0.1908683930645445,0.0815503998686787,True,-0.1263106913482956,-0.5928879479058577,"['F', 'Li', 'Mn', 'O']"
mp-761164,LiNbF5,3,False,-1.2247937241423712,-0.5562693499446355,-0.8334101016261749,False,-0.3229918975601042,-0.0944630777404015,"['F', 'Li', 'Nb']"
mp-26847,LiCoP2O7,4,True,-0.3767031226437324,0.0016200404588336,-0.1190055836603486,False,-0.5401287515325802,0.3247932626942268,"['Co', 'Li', 'O', 'P']"
mp-765686,Li2Co4OF8,4,True,-0.4043541591229138,0.4144648855451053,0.6558636518245256,True,0.2533814849579404,-0.2682317507547782,"['Co', 'F', 'Li', 'O']"
mp-675941,Li7IN2,3,False,1.444445392532804,1.0039022313211017,0.4250414547109346,True,-0.8620783486860276,-0.4453805929359901,"['I', 'Li', 'N']"
mp-758140,LiTi(PO3)4,4,False,-0.7842257004903408,-0.1323759245193166,-0.7274444992551651,False,-0.7805679385939414,0.1378284666333387,"['Li', 'O', 'P', 'Ti']"
mp-777681,Li3VF6,3,False,-1.3233635594594757,0.4268379975521523,0.8343462894283465,True,-0.6623414762981236,-0.5927900306126291,"['F', 'Li', 'V']"
mp-758552,LiCoPO4,4,True,-0.3807814815149483,0.0186951423642989,0.6670357440872836,True,-0.3192574573026256,-0.2956133216580385,"['Co', 'Li', 'O', 'P']"
mp-26393,LiMn4(PO4)3,4,True,-0.6349154900373158,-0.2851278963393841,1.410690830886512,True,-0.1274707608278777,1.5183918391950029,"['Li', 'Mn', 'O', 'P']"
mp-1100580,Li9Mn7O16,3,True,-0.1693613204066395,0.0389827637613241,-0.0451343554259902,False,0.116920037606671,-0.3793032386500624,"['Li', 'Mn', 'O']"
mp-768173,Li2Al2FeO6,4,True,-0.6422760258431517,0.0645800603449402,-0.2075020963114086,False,-0.1819008569957798,-0.0267936622936903,"['Al', 'Fe', 'Li', 'O']"
mp-1178332,Li(CoO2)2,3,True,0.5658149942732498,0.1971314012218242,-0.8061908222950914,False,0.4940241805012259,0.3753639957593401,"['Co', 'Li', 'O']"
mp-1185411,LiEu3,2,False,2.277937755976297,-6.416168834372256,-0.8682128617659177,False,0.8064109441238945,-0.7903159520031677,"['Eu', 'Li']"
mp-775739,LiMn28O56,3,True,0.2172862397750605,-0.2319771059437985,-0.8682128617659177,False,0.2514510973352631,1.5987566392674728,"['Li', 'Mn', 'O']"
mp-757296,Li2V3CoO8,4,True,-0.3878811319415672,-0.175656062464337,0.1593487878075225,True,0.1294538546399376,0.481703549959491,"['Co', 'Li', 'O', 'V']"
mp-1027758,LiMg14Co,3,True,2.2638310745488264,0.7940183895677606,-0.8682128617659177,False,-1.185595718307748,-0.2536959417027877,"['Co', 'Li', 'Mg']"
mp-757542,Li3Ti(Si2O5)3,4,False,-1.2161496329074837,-0.1792550305262917,-0.7537835531352434,False,-0.7122758113261339,2.169780349690592,"['Li', 'O', 'Si', 'Ti']"
mp-772561,Li2CuSb(PO4)2,5,False,-0.2987089266540346,0.1654894860100651,-0.0603690266933876,False,0.0684006631665749,-0.269494921610784,"['Cu', 'Li', 'O', 'P', 'Sb']"
mp-766229,Li3VSiO5,4,False,-0.7741263575169258,0.0296334774345915,0.2875908650539698,True,-0.6834311500601792,0.0259537523295145,"['Li', 'O', 'Si', 'V']"
mp-758937,Li3Mn2(PO4)3,4,True,-0.631721499913417,-0.073838818205416,-0.3712917398484508,False,-0.5415628522312232,1.4724657521894304,"['Li', 'Mn', 'O', 'P']"
mp-761083,Li9V3P8O29,4,False,-0.8099741792040062,-0.0441580144199309,0.0929933307317468,True,-0.7481797777200092,2.139715348059747,"['Li', 'O', 'P', 'V']"
mp-849145,Li3VFe3O8,4,True,0.3477561933371353,0.0867969446484569,-0.823727621665117,False,0.1897749577035769,-0.8015589537153812,"['Fe', 'Li', 'O', 'V']"
mp-849618,Li2Mn3(BO3)3,4,True,-0.503589149418451,-0.2303813944277987,-0.8682128617659177,False,-0.4081039129887068,1.4730791450868383,"['B', 'Li', 'Mn', 'O']"
mp-976944,Li5Mg,2,False,2.155399577407414,1.328494902794655,-0.8682128617659177,False,-1.974540843964732,-0.8840178805151132,"['Li', 'Mg']"
mp-973316,NaLi3,2,False,2.2164400055859064,1.345385389847663,-0.8682128617659177,False,-2.0231466680660493,-0.6596940342289346,"['Li', 'Na']"
mp-1178121,Li(Fe2O3)4,3,True,0.3423605411897847,-0.153907001764305,-0.249075821458885,False,0.5665378698416953,0.1088390482044562,"['Fe', 'Li', 'O']"
mp-756858,LiV3O8,3,False,-0.3789912811327287,-0.2233630232499051,0.3817749883115257,True,-0.3066515209230467,-0.3998530940286767,"['Li', 'O', 'V']"
mp-1009009,LiF,2,False,-1.0203460051792623,0.4699069983072036,4.250162716529092,False,-0.7922570537491089,-1.1896795283176764,"['F', 'Li']"
mp-759093,LiMnF3,3,True,-1.146969909906467,0.2606449675782168,1.7207333185905704,True,-0.3540061111822458,-0.5303284709620896,"['F', 'Li', 'Mn']"
mp-1177602,Li3MnV(PO4)3,5,True,-0.7100754204301924,-0.093369815458406,-0.5223519691709564,False,-0.5877275892827007,1.5109015948887046,"['Li', 'Mn', 'O', 'P', 'V']"
mp-1235361,LiDy2Mn4O8,4,True,-0.5139644681394817,-0.2869490899014572,-0.5966971649558568,False,1.177077048498392,-0.6466198436017593,"['Dy', 'Li', 'Mn', 'O']"
mp-768110,Li2Ti3CoO8,4,True,-1.1096473278038097,-0.2921173057144231,0.7955486599340409,True,0.0298707885242657,0.5025424564195617,"['Co', 'Li', 'O', 'Ti']"
mp-973136,LiSmO3,3,False,-0.3483847970954327,0.2009010391951824,-0.8682128617659177,False,1.864380905381842,-1.087556894378079,"['Li', 'O', 'Sm']"
mp-24419,SrLiH3,3,False,2.0325240874167427,0.4558985975798394,0.363764221390958,True,-1.4184941764976935,-0.9511016912900888,"['H', 'Li', 'Sr']"
mp-774907,KLiZnS2,4,False,0.7190424404456863,0.9985634494260488,0.8544560555013112,True,-0.664607265065101,-0.932773040634769,"['K', 'Li', 'S', 'Zn']"
mp-753946,LiCoS2,3,True,1.0698583256025036,0.5646358306661033,-0.4763771167684554,False,0.04849550334159,-0.9120141216463852,"['Co', 'Li', 'S']"
mp-1175395,Li9Mn2Co5O16,4,True,0.1401736300072614,0.2125835896932355,0.0188512638970784,True,0.2933897657471243,-0.4105170257468397,"['Co', 'Li', 'Mn', 'O']"
mp-774355,Li3Co2(SiO4)2,4,True,-0.467209976500021,0.0532384515108728,-0.4962837538911874,False,-0.442244501398669,-0.2359137180779218,"['Co', 'Li', 'O', 'Si']"
mp-26413,Li2MnP2O7,4,True,-0.7395664880009402,-0.0694669474511804,1.9158725301134123,True,-0.6238753179932385,0.4142743813756203,"['Li', 'Mn', 'O', 'P']"
mp-774797,Li2Ti3ZnO8,4,False,-1.1900598294842837,-0.1915935034748362,1.2813653992388272,True,0.0754544951384675,0.5039942305498287,"['Li', 'O', 'Ti', 'Zn']"
mp-1110971,Cs2LiSbF6,4,False,-0.9926877205777224,0.71589636724269,1.9253518811242376,True,0.5775495477967565,-0.7096455463887256,"['Cs', 'F', 'Li', 'Sb']"
mp-764476,Li4Fe7(OF7)2,4,True,-0.6103091149681197,0.2643229656342578,0.939770214598737,True,-0.156127396875688,-0.261057294945844,"['F', 'Fe', 'Li', 'O']"
mp-759383,Li3FeSi2O7,4,True,-0.7621362312171819,0.0056865477717369,1.029891758851653,True,-0.5673020810658789,1.1888062404751707,"['Fe', 'Li', 'O', 'Si']"
mp-1176712,LiFe7O7F,4,True,0.3829191165286849,-0.1328547627917242,-0.8682128617659177,False,0.4559400821613467,-0.6659537257015069,"['F', 'Fe', 'Li', 'O']"
mp-1114234,Na2LiRhF6,4,False,-0.6355772835119539,0.6910349931264378,0.3802176663597465,True,-0.1410191920985268,-0.872626984865085,"['F', 'Li', 'Na', 'Rh']"
mp-782644,LiMn3(BO3)3,4,True,-0.4645986495901557,-0.2877519783281554,-0.5839677507413202,False,-0.4204667642095228,-0.1685608768515134,"['B', 'Li', 'Mn', 'O']"
mp-757019,LiFePO4,4,True,-0.4951276841812383,-0.0668630003592268,1.6177469408229634,True,-0.2649013378208679,-0.3361002566184979,"['Fe', 'Li', 'O', 'P']"
mp-1663944,LiMnPO4,4,True,-0.7000726713677082,-0.1495957394834408,1.3580804327764333,True,-0.2162221822690515,-0.3603270190891763,"['Li', 'Mn', 'O', 'P']"