material_id,formula_pretty,n_elements,contains_transition_metal,formation_energy_per_atom,energy_per_atom,band_gap,is_semiconductor,density,volume,elements
mp-570542,LiTm2Cl5,3,False,0.0417970957375005,-2.200053501915292,-0.7608253567432849,False,0.7940690437040011,-0.2240647725087442,"['Cl', 'Li', 'Tm']"
mp-764746,Li5V7O12,3,False,-0.4457191727656617,-0.1807413034363663,-0.7038138313781803,False,0.3410730575575043,-0.5816196443163064,"['Li', 'O', 'V']"
mp-1278198,Li2TiVO4,4,False,-0.848707533024899,-0.1571770227838886,-0.8682128617659177,False,0.0806943416592786,-0.3626735118385997,"['Li', 'O', 'Ti', 'V']"
mp-1175794,Li9Mn2Co5O16,4,True,0.1286306000882019,0.2095393643944188,0.242293109152242,True,0.3363831249332561,-0.4230219472425924,"['Co', 'Li', 'Mn', 'O']"
mp-26017,LiCoPO4,4,True,-0.4687307154501806,-0.0044995720940881,1.1730976687651893,True,-0.477651031988679,-0.2221235234465618,"['Co', 'Li', 'O', 'P']"
mp-771087,Li6V3W3O16,4,False,-0.3311130901794775,-0.1728469228811938,-0.2769044876406638,False,1.142329096602398,-0.3578319384095905,"['Li', 'O', 'V', 'W']"
mp-31194,Li13(Ga7Cu2)3,3,False,1.811254119755575,-0.4237528419581603,-0.8682128617659177,False,1.0114887524161726,2.2895664086074863,"['Cu', 'Ga', 'Li']"
mp-1096124,Li2CdIn,3,False,3.101696726797999,-1.085622724995422,-0.86665553981414,False,-2.252929458838945,1.7811910402056197,"['Cd', 'In', 'Li']"
mp-1100661,Li9Mn2Co5O16,4,True,0.3051982536908175,0.2561052766218756,-0.8682128617659177,False,0.2604353894058194,-0.4006691687359466,"['Co', 'Li', 'Mn', 'O']"
mp-780460,LiMn3(BO3)3,4,True,-0.4670007361874377,-0.2883854768844852,-0.5762488506325049,False,-0.4380238564319783,-0.1594937280485592,"['B', 'Li', 'Mn', 'O']"
mp-861900,LiGaAu2,3,False,1.6842563243910629,-6.358759151826571,-0.8682128617659177,False,5.950742000572044,-1.0596935210203593,"['Au', 'Ga', 'Li']"
mp-1177350,Li4Mn5Sb(PO4)6,5,True,-0.5512032179956579,-0.121319300168654,-0.856769930902851,False,-0.2944240672995897,0.2017645367095775,"['Li', 'Mn', 'O', 'P', 'Sb']"
mp-1236073,Ba2LiEu(CuO2)4,5,False,0.1970655522171651,0.2847811144086974,-0.8682128617659177,False,1.576801808582862,-0.5976690707400973,"['Ba', 'Cu', 'Eu', 'Li', 'O']"
mp-760363,LiFe2OF3,4,True,-0.4173418865527378,0.2043296553329898,0.655728232524371,True,0.0126510443380988,-0.2630397687921224,"['F', 'Fe', 'Li', 'O']"
mp-758965,LiFe5P3O13,4,True,-0.2790153350498987,-0.181139594139094,1.1493992912381263,True,-0.0486311460678616,0.2927655673716938,"['Fe', 'Li', 'O', 'P']"
mp-759849,Li2Ti6Zn3O16,4,False,-1.1501468706334643,-0.2060402198674285,1.0903564763707014,True,0.2461165586078283,0.5160755588691304,"['Li', 'O', 'Ti', 'Zn']"
mp-754131,LiNiPHO5,5,True,-0.0171944518507902,0.2047151196593607,-0.8640148634611244,False,-0.2279531968254545,-0.7385824189109518,"['H', 'Li', 'Ni', 'O', 'P']"
mp-1176577,LiV(PO3)4,4,False,-0.7472237376051325,-0.141773869989976,0.6650721642350413,True,-0.5999860545021327,0.018009105438936,"['Li', 'O', 'P', 'V']"
mp-1305320,Li8CoO5F,4,True,-0.0658560364792521,0.5724402378338327,-0.8682128617659177,False,-0.7350346856108018,-0.4661601413781482,"['Co', 'F', 'Li', 'O']"
mp-27453,Li7SbO6,3,False,-0.1897175652126206,0.5109392699087103,1.49972902073819,True,-0.3142703845428361,-0.848850619158258,"['Li', 'O', 'Sb']"
mp-1211593,LiEr6B3O14,4,False,-1.812318552519708,-0.373318683328788,2.423288647792865,True,2.4341024526540704,2.050697848640543,"['B', 'Er', 'Li', 'O']"
mp-849995,Li7Sc9Fe(SiO3)20,5,True,-1.3787905892572654,-0.2732428248118583,-0.8682128617659177,False,-0.5413168271314881,2.07249088415282,"['Fe', 'Li', 'O', 'Sc', 'Si']"
mp-570771,BaLi2(MgSi)2,4,False,1.8642787030185748,1.2077086611584542,-0.8682128617659177,False,-0.7164257725712451,-0.780046546968349,"['Ba', 'Li', 'Mg', 'Si']"
mp-1101854,LiB11,2,False,2.9807598010080083,0.3132578638066857,-0.8682128617659177,False,-0.8329483873097013,-0.9972572583741652,"['B', 'Li']"
mp-757347,Li13Ni15O28,3,True,0.559435439343552,0.3906760199854067,-0.8682128617659177,False,0.7447637996919202,0.1604985028982883,"['Li', 'Ni', 'O']"
mp-849356,Li4Mn3Fe(PO4)4,5,True,-0.6809847610997157,-0.1373909854143901,1.5461101310411558,True,-0.2593180760848918,0.5537119636309817,"['Fe', 'Li', 'Mn', 'O', 'P']"
mp-1174181,Li3Co2O5,3,True,0.4934783537282653,0.3709697999524161,-0.8682128617659177,False,0.1993697145092267,-0.7201013057895663,"['Co', 'Li', 'O']"
mp-25373,LiMnO2,3,True,-0.0968023949312092,-0.0076459876347979,-0.8682128617659177,False,0.1880751561614982,-1.1264896302543066,"['Li', 'Mn', 'O']"
mp-1100730,Li9Mn2Co5O16,4,True,0.2309759151665502,0.2365307349064591,-0.8682128617659177,False,0.2726660203382653,-0.4043513140370315,"['Co', 'Li', 'Mn', 'O']"
mp-976408,Li3Ag,2,False,2.038552482329068,0.007916898996115,-0.8682128617659177,False,-0.3211401495073983,-1.0494582243797723,"['Ag', 'Li']"
mp-752927,LiAgF2,3,False,-0.1555141813276526,-0.6779770670573437,0.2659237770292275,True,1.1328148689194633,-0.9689441391551212,"['Ag', 'F', 'Li']"
mp-675711,Li(Mo3S4)2,3,False,1.0382428098075354,-0.1234836541923851,-0.8682128617659177,False,0.8342114482726191,0.3721624250712229,"['Li', 'Mo', 'S']"
mp-1235628,Ba2LiLaIrO6,5,False,-0.5822258933709029,0.0872144756536499,-0.8682128617659177,False,2.0837005044139256,-0.7431137913679324,"['Ba', 'Ir', 'La', 'Li', 'O']"
mp-1176982,Li6MnV3(PO4)6,5,True,-0.7806518292938684,-0.1114162417514996,-0.6372552453521727,False,-0.5692467277989337,1.4714930615814596,"['Li', 'Mn', 'O', 'P', 'V']"
mp-768403,Li4TiCrO6,4,False,-0.6888663050780544,0.0303327694544844,-0.0502802888318667,False,-0.1967827647881833,0.0028510332830681,"['Cr', 'Li', 'O', 'Ti']"
mp-761260,Li2V(OF)2,4,False,-0.8798284924999443,0.2031059783701703,-0.8554157379013045,False,-0.4761209039367142,-0.8126585315956764,"['F', 'Li', 'O', 'V']"
mp-753628,LiVF6,3,False,-1.0700373647009176,0.4413876745653455,1.2298383555299848,True,-0.7809743710098438,-0.6000279216942791,"['F', 'Li', 'V']"
mp-1097144,LiTlHg2,3,False,2.801953755896024,-8.914851798369854,-0.8682128617659177,False,-1.953298853952299,2.2971373144372382,"['Hg', 'Li', 'Tl']"
mp-752498,Li2VOF5,4,False,-1.0277041612615594,0.3837698007638476,1.3644451398837012,True,-0.9582505230688952,-0.874463021063538,"['F', 'Li', 'O', 'V']"
mp-758564,Li2V(CO3)3,4,False,-0.0728590312899596,-0.1269396564497585,0.7291932028582653,True,-1.057494087341685,-0.155912462982537,"['C', 'Li', 'O', 'V']"
mp-760208,Li4V3(FeO6)2,4,True,-0.312740369644779,-0.0801657891754156,0.3596339327362414,True,-0.4465711928315792,1.7747894695680566,"['Fe', 'Li', 'O', 'V']"
mp-1175244,Li7Mn4CoO12,4,True,-0.0766661257705511,0.109875365809346,-0.5738113032297212,False,0.1382770799100489,-0.6089103887955813,"['Co', 'Li', 'Mn', 'O']"
mp-775890,Li7V6(OF)12,4,False,-0.8085769017498978,0.1476073988289432,-0.6665735238356525,False,-0.4232934946247367,1.1433814149587056,"['F', 'Li', 'O', 'V']"
mp-1235840,Rb12Li(ClO)4,4,False,0.6601019698079307,1.14827930250069,-0.8682128617659177,False,-0.5680693776700136,0.8085660964148101,"['Cl', 'Li', 'O', 'Rb']"
mp-1034041,KLiMg14O15,4,False,-0.8143363408053075,0.38722331119104,0.6094148318714817,True,-0.3588136100777507,-0.3037596127622501,"['K', 'Li', 'Mg', 'O']"
mp-1289227,Li3V4O8,3,False,-0.5398184156735004,-0.1829051674249887,-0.2366849554947344,False,0.0291664798247889,-0.346903054701786,"['Li', 'O', 'V']"
mp-765207,Li3Cr(Si2O5)3,4,False,-1.129328760600401,-0.1767559166116728,1.5597197707066983,True,-0.6593059884682161,2.1008370919266373,"['Cr', 'Li', 'O', 'Si']"
mp-1211042,LiSiAg2,3,False,2.1963637836664955,1.1735593144227927,-0.8682128617659177,False,1.7777054375098615,-1.050488956624965,"['Ag', 'Li', 'Si']"
mp-695434,Li7Zr3Nb(TeO6)4,5,False,-0.5009840057612975,0.0642804388124872,0.4188798765538982,True,0.7592934548288486,1.3326051112130468,"['Li', 'Nb', 'O', 'Te', 'Zr']"
mp-1185222,Li3Eu,2,False,2.292397678229732,-1.170233172464394,-0.8682128617659177,False,-0.8558650593446901,-0.9028616600722046,"['Eu', 'Li']"
mp-976047,Li3Hg,2,False,1.846877183824163,-2.0745318114230176,-0.8682128617659177,False,1.109425978258219,-1.0418520600626868,"['Hg', 'Li']"
mp-775294,LiCr3P4O15,4,False,-0.6599216261980572,-0.2342431913696769,0.6415769156582105,True,-0.5087066453538998,2.141289108799244,"['Cr', 'Li', 'O', 'P']"
mp-757773,Li5V5O12,3,False,-0.4968173369693475,-0.1002422111040225,-0.8682128617659177,False,-0.111976891477243,0.0503746168873411,"['Li', 'O', 'V']"
mp-759768,Li3Fe8(BO3)8,4,True,-0.3056092082675777,-0.1995518682961384,0.0397735457709716,True,-0.368424174831494,0.1676387366678026,"['B', 'Fe', 'Li', 'O']"
mp-757926,Li3Co11O14,3,True,0.8623011310039983,0.1758916652467415,-0.8682128617659177,False,1.2937912780050966,-0.4847606276707436,"['Co', 'Li', 'O']"
mp-1097065,Li2HfN2,3,False,0.5964545269784404,-2.2605311920176865,0.4416980286299558,True,2.460275695016392,-1.0958757443831533,"['Hf', 'Li', 'N']"
mp-753498,Li3V4(OF3)3,4,False,-1.102715555039631,0.1158889003743977,0.4159683616005726,True,-0.1257856370728235,-0.6410788570113362,"['F', 'Li', 'O', 'V']"
mp-850955,LiFeP3(H7O8)2,5,True,0.2284640955949833,0.3279527481346022,1.794604546824928,True,-1.0813488013907775,0.6753691600406778,"['Fe', 'H', 'Li', 'O', 'P']"
mp-759784,Li2Bi2P2O9,4,False,-0.4264452367905461,0.1310600943012271,1.5663553164142756,True,0.8767640324471894,-0.0295639911353028,"['Bi', 'Li', 'O', 'P']"
mp-1079483,LiAuF6,3,False,0.2310183173959695,0.9952336264095596,0.396129434127918,True,1.1875553757495092,-0.9622684323615162,"['Au', 'F', 'Li']"
mp-1096413,LiCuAg2,3,False,3.582041248093989,-1.5746546892951174,-0.3180042452375983,False,-2.1312525142837493,1.191923145274309,"['Ag', 'Cu', 'Li']"
mp-1175344,Li7Mn5O12,3,True,-0.1627992962273442,0.0626348907689509,-0.411917529894844,False,0.0623369718945025,-0.5953119297686638,"['Li', 'Mn', 'O']"
mp-764378,LiCo3Sb(PO4)6,5,True,-0.1174044330606167,0.0265295206939555,-0.8682128617659177,False,-0.2748720333176992,0.0187066872521726,"['Co', 'Li', 'O', 'P', 'Sb']"
mp-777566,LiVF4,3,False,-1.33413587087287,0.2851147391092104,0.6264776636909677,True,-0.2757519241962203,-0.4689329863606202,"['F', 'Li', 'V']"
mp-674420,Li2NiO3,3,True,0.4281392915501398,0.469708999775196,0.0834462700708444,True,0.3356325964402416,-0.6942567787414008,"['Li', 'Ni', 'O']"
mp-1235219,LiZn(SbO2)4,4,False,0.3518171852617173,0.4032121994966501,-0.8682128617659177,False,0.9067934352462164,-0.5925865353817483,"['Li', 'O', 'Sb', 'Zn']"
mp-849372,LiVP3HO10,5,False,-0.6087343112864558,-0.0745917294977764,0.555314821459702,True,-1.0291849678234144,1.4654849079077152,"['H', 'Li', 'O', 'P', 'V']"
mp-752865,Li4Mn5Cu3O16,4,True,0.306629046668479,0.1179960258070932,-0.8682128617659177,False,0.4902495015643729,-0.4369417291269068,"['Cu', 'Li', 'Mn', 'O']"
mp-776405,Li6Sb2S7,3,False,0.9838889065609856,0.8566073007762864,-0.8682128617659177,False,-0.5842600507496581,0.4605797862880633,"['Li', 'S', 'Sb']"
mp-1078503,LiTiNCl,4,False,0.2696995078777161,0.1597797811812706,-0.8682128617659177,False,-0.4559727775718821,-0.9123084097260696,"['Cl', 'Li', 'N', 'Ti']"
mp-766696,Li3FePCO7,5,True,-0.3808664397496467,0.0215708698957665,0.4424428347808063,True,-0.593839119803375,0.3138893160608453,"['C', 'Fe', 'Li', 'O', 'P']"
mp-752847,Li4Fe3(OF3)2,4,True,-0.6112709732100607,0.3247968735405174,1.456191715738473,True,-0.1394275761343094,-0.3140791952792453,"['F', 'Fe', 'Li', 'O']"
mp-753430,LiV(OF)2,4,False,-0.7325161259812827,0.1503325369342976,0.8599405371575742,True,-0.5441362018824699,-0.403040351473309,"['F', 'Li', 'O', 'V']"
mp-1235897,LiSm4Tm4O12,4,False,-1.8269405405970585,-0.298310706876545,-0.6503909174671733,False,3.0523892497306,-0.3866760992431127,"['Li', 'O', 'Sm', 'Tm']"
mp-801079,Li3(CoO2)4,3,True,0.931666669188752,0.3560819132659718,-0.8682128617659177,False,0.6492150205388583,-0.847541431847363,"['Co', 'Li', 'O']"
mp-768913,LiVB2O5,4,False,-0.7910078889656709,-0.2524963438719183,0.6702180976409178,True,-0.605800163366627,-0.1627767023577571,"['B', 'Li', 'O', 'V']"
mp-752650,Li4Fe(SiO4)2,4,True,-0.5768258184176617,0.0995337527483941,-0.7195224701961184,False,-0.6460835503678745,0.6062502211891866,"['Fe', 'Li', 'O', 'Si']"
mp-774281,Li4Fe3Ni2Sn3O16,5,True,0.2467305333754977,0.1965866242949032,-0.8682128617659177,False,0.7710932536315529,-0.3336799811909575,"['Fe', 'Li', 'Ni', 'O', 'Sn']"
mp-776777,Li4CrCo2Ni3(PO4)6,6,True,-0.334419240609982,-0.0011939720184504,-0.8682128617659177,False,-0.2001176977822606,0.0727798649236944,"['Co', 'Cr', 'Li', 'Ni', 'O', 'P']"
mp-1175057,Li7Mn2(CoO4)3,4,True,0.344189431260602,0.2699163626044434,-0.8682128617659177,False,0.1696337196297055,-0.6067068800865426,"['Co', 'Li', 'Mn', 'O']"
mp-780388,LiMn3(BO3)3,4,True,-0.4588005825803585,-0.2862228631478926,-0.5766551085329694,False,-0.4229294697899456,-0.1672982444645818,"['B', 'Li', 'Mn', 'O']"
mp-756025,Li4Ti3Nb3V2O16,5,False,-0.9693794495500514,-0.3641208772418582,-0.8682128617659177,False,0.3120121522350285,-0.3193715447905429,"['Li', 'Nb', 'O', 'Ti', 'V']"
mp-760046,LiPH21S3N7,5,False,1.5861159975788663,0.6434291749857174,1.3460281150626698,True,-1.6923626771640248,0.7518858908459427,"['H', 'Li', 'N', 'P', 'S']"
mp-1517519,NaLiCeWO6,5,False,-0.6831958753967474,-0.1453598534855977,0.3939627253254437,True,0.9301852033834408,-0.8185118950480269,"['Ce', 'Li', 'Na', 'O', 'W']"
mp-677510,LiMgSO4F,5,False,-0.0609713307905461,0.4569825688281616,-0.2733158761865664,False,-0.9203258905933964,-0.6473039010643461,"['F', 'Li', 'Mg', 'O', 'S']"
mp-771148,Li4Mn3Cr5O16,4,True,-0.2503972092696659,-0.2117377930093029,-0.7055742822801907,False,0.2984542850795407,-0.4285240791566047,"['Cr', 'Li', 'Mn', 'O']"
mp-780203,Li9(FeO4)2,3,True,0.0567814726620247,0.4282005716819311,-0.8505406430957367,False,-0.8307271746561198,-0.0830714771115233,"['Fe', 'Li', 'O']"
mp-802705,Li11Fe12(BO3)12,4,True,-0.0407079967900397,-0.0286341813794122,-0.7925134729794717,False,-0.3077295566404776,0.8781421841970136,"['B', 'Fe', 'Li', 'O']"
mp-774082,Li(CoO2)2,3,True,0.5143162664224173,0.1835497219504629,-0.4173343019010305,False,0.6878969830374906,0.277517425606424,"['Co', 'Li', 'O']"
mp-753363,Li4Sb(TeO4)3,4,False,0.1997400516879997,0.422570049602632,-0.8682128617659177,False,0.9994010598979792,-0.5758571704476274,"['Li', 'O', 'Sb', 'Te']"
mp-1222651,Li2MgGe,3,False,1.8161317210069248,1.2871761277486715,-0.8682128617659177,False,-0.6190225675404916,-1.050041210337423,"['Ge', 'Li', 'Mg']"
mp-1096468,LiZn2Cu,3,False,3.2409897850396745,1.7749288831674754,0.1072123572479845,True,-2.1465146382292173,0.5428934901070496,"['Cu', 'Li', 'Zn']"
mp-1174549,Li4MnCo2O7,4,True,0.2607299194733902,0.2458897135954567,-0.8682128617659177,False,0.1707290540968183,-0.4897999551125825,"['Co', 'Li', 'Mn', 'O']"
mp-752821,Li3V5O12,3,False,-0.4865631638464573,-0.1929481479117575,-0.1133179730538536,False,-0.0972558237139542,-0.6162844561869305,"['Li', 'O', 'V']"
mp-753590,Li3Fe3CoO8,4,True,0.2117508101659425,0.0886571096990304,-0.8682128617659177,False,0.3170115038698516,-0.8121431741046055,"['Co', 'Fe', 'Li', 'O']"
mp-735483,Na3LiMo2(H6O7)2,5,False,0.3396258782071124,0.3803367780559334,2.264848066611931,True,-0.9319964363894492,0.8117632314969556,"['H', 'Li', 'Mo', 'Na', 'O']"
mp-761125,Li2V(OF)2,4,False,-0.9084300854155082,0.1955629248261211,0.2549548137167013,True,-0.5256516070336504,-0.3659172187748874,"['F', 'Li', 'O', 'V']"
mp-767295,Li3ZnPCO7,5,False,-0.4194123736922179,0.1723317263483056,2.207836541246826,True,-0.5213095103996787,-0.4595745714094849,"['C', 'Li', 'O', 'P', 'Zn']"
mp-1178131,Li2Cu3F11,3,False,-0.0015032949545465,0.2381322348301701,-0.8682128617659177,False,-0.31512928133501,1.1803668461589878,"['Cu', 'F', 'Li']"
mp-775295,Li2MnCr3O8,4,True,-0.2855986130043172,-0.226109683140846,-0.8682128617659177,False,0.1739972608712892,-0.8163180541096111,"['Cr', 'Li', 'Mn', 'O']"
mp-770997,Li2HfO3,3,False,-1.304076253316718,-0.1891191227670636,1.9636755430680024,True,1.8995297595555345,-1.0632371274193817,"['Hf', 'Li', 'O']"
mp-753083,Li3(FeO2)4,3,True,0.2800985615572106,0.0808281838506057,-0.8682128617659177,False,-0.3622963695179163,-0.6819586513128524,"['Fe', 'Li', 'O']"
mp-1176733,LiFe2C2O7,4,True,0.2193744455350837,-0.142873902092431,0.3244249146960338,True,-0.7869309870591666,-0.2894338556006542,"['C', 'Fe', 'Li', 'O']"
mp-779305,Li2FeBO4,4,True,-0.3639956373526041,0.0370260124632634,0.9912972583075792,True,-0.4349167122178209,-0.3439602907790729,"['B', 'Fe', 'Li', 'O']"
mp-1205261,Li4FeC6ClO21,5,True,1.112106021862311,0.2737500272157698,-0.8682128617659177,False,-1.2071255353691277,3.957046373749464,"['C', 'Cl', 'Fe', 'Li', 'O']"
mp-1340817,Li4Mn3Cr2O10,4,True,2.015348401972285,0.4834963967862493,-0.8682128617659177,False,0.2095409885036624,-0.6993930054671789,"['Cr', 'Li', 'Mn', 'O']"
mp-768607,Li2CrCSO7,5,False,-0.1177884687451468,0.0213212059998307,0.7585114813417457,True,-0.8501601866372548,0.4786706051720316,"['C', 'Cr', 'Li', 'O', 'S']"
mp-772309,Li3Ti(CuO2)4,4,False,0.2226215382299161,0.335273834675597,-0.8682128617659177,False,0.7122873631153785,-0.7891453594717811,"['Cu', 'Li', 'O', 'Ti']"
mp-1174475,Li4MnCo2O7,4,True,0.1837634174430802,0.2255914579134504,-0.8558897054518452,False,0.2073328356391542,-0.4998838768248188,"['Co', 'Li', 'Mn', 'O']"
mp-759474,LiFe2(BO3)2,4,True,-0.3177262302011492,-0.1776602166551108,0.1233272539663871,True,-0.3485464965381514,0.1650113797984994,"['B', 'Fe', 'Li', 'O']"
mp-1031034,LiMg6CrO8,4,False,-0.949334686234838,0.183497293523601,1.333230991198056,True,-0.0704781573627612,-0.8003937232898051,"['Cr', 'Li', 'Mg', 'O']"
mp-768691,Li4Cr3CoO8,4,True,-0.2823709514175404,-0.0465120951941603,-0.3009414134181131,False,0.3656651666557853,-0.4108361793496778,"['Co', 'Cr', 'Li', 'O']"
mp-7080,Li5(NiN)3,3,True,1.6870384653021349,-0.0015926791203438,-0.8682128617659177,False,-0.2500030178414164,-0.8791503534589089,"['Li', 'N', 'Ni']"
mp-773139,Li4V3Sb5O16,4,False,-0.1331156829699725,0.1078331540890281,-0.0053210811805248,False,0.7088525219118417,-0.1959840151720771,"['Li', 'O', 'Sb', 'V']"
mp-543044,BaLiAlF6,4,False,-2.075022962698845,0.3771538686092671,4.177577971646203,False,0.1057486056853858,0.1616505432260387,"['Al', 'Ba', 'F', 'Li']"
mp-973415,LiLa3,2,False,2.3311689254180656,-4.492356485777065,-0.8682128617659177,False,1.1513991638557597,-0.4955625518991055,"['La', 'Li']"
mp-15988,Li2CuSb,3,False,1.6375000096426229,-1.0270880286393826,-0.561149598665262,False,1.0409423639249098,-1.0581493476263195,"['Cu', 'Li', 'Sb']"
mp-30404,Li2SbAu,3,False,1.5115435357003977,-3.942789519193587,-0.8682128617659177,False,2.754601431009465,-1.035434529663142,"['Au', 'Li', 'Sb']"
mp-606604,CsLi2F3,3,False,-1.1484136474715776,-0.6626447678526873,3.95819870539568,True,0.1632083125649516,-0.9935118622990844,"['Cs', 'F', 'Li']"
mp-1235025,LiTiFe5O8,4,True,0.087589773890801,-0.2126535616004035,-0.1305839338235708,False,0.583675009008543,-0.758898747687636,"['Fe', 'Li', 'O', 'Ti']"
mp-760050,Li7Sc9Fe(SiO3)20,5,True,-1.376870587088555,-0.2727364656308842,-0.8682128617659177,False,-0.5431844169028217,2.07563592298217,"['Fe', 'Li', 'O', 'Sc', 'Si']"
mp-1245983,LiSnN,3,False,1.8374167124181668,0.644477536186752,-0.0811558892671262,False,0.809500294253646,-0.9681376222019378,"['Li', 'N', 'Sn']"
mp-849320,Na2Li2V3P2O13,5,False,-0.6305296127325526,-0.063862814246388,0.3429096491671427,True,-0.5982319553853839,2.002866917150233,"['Li', 'Na', 'O', 'P', 'V']"
mp-38487,Li7BiO6,3,False,-0.0073618603237414,0.5639842044522884,0.4364166759239246,True,0.4334686209708618,-0.8526855103839609,"['Bi', 'Li', 'O']"
mp-1246686,Li3AuN2,3,False,2.1481985272143915,-1.5700320447606502,-0.8682128617659177,False,1.5286908207738816,0.3241927184504379,"['Au', 'Li', 'N']"
mp-1021309,KLiMg6,3,False,2.366820721947424,0.9508322142981694,-0.8682128617659177,False,-1.49729931824329,-0.0214603130703557,"['K', 'Li', 'Mg']"
mp-775374,Li3MnV(PO4)3,5,True,-0.7030213182918058,-0.0915094480903323,-0.5915512315499796,False,-0.3956679428860561,1.2610810209761956,"['Li', 'Mn', 'O', 'P', 'V']"