material_id,formula_pretty,n_elements,contains_transition_metal,formation_energy_per_atom,energy_per_atom,band_gap,is_semiconductor,density,volume,elements
mp-778384,Li4Co3P4O15,4,True,-0.4542787107138674,0.0249314344683903,1.092387765873021,True,-0.3705695517305108,2.172823342814608,"['Co', 'Li', 'O', 'P']"
mp-1096335,LiGe2Pt,3,False,3.623822709552764,1.2449309535043995,-0.6906104496131019,False,-1.972232542586041,0.8371395983711871,"['Ge', 'Li', 'Pt']"
mp-758594,Li(Fe3P2)2,3,True,1.5982758383510831,-0.0019485918325569,-0.8682128617659177,False,1.6031167328933251,-0.8746820875531408,"['Fe', 'Li', 'P']"
mp-725054,LiTi2(PO4)3,4,False,4.608585465346748,1.249885574439104,-0.8682128617659177,False,-0.6645398043155951,0.1100373620612537,"['Li', 'O', 'P', 'Ti']"
mp-16804,LiCaPO4,4,False,-1.2438089620618469,0.0036364953281376,2.639011592939213,True,-0.6614867095431466,0.2410965723346576,"['Ca', 'Li', 'O', 'P']"
mp-776381,LiVPO5,4,False,-0.6812559411352492,-0.1332900510536396,0.6139513784266631,True,-0.7146857143999983,1.1768553061880884,"['Li', 'O', 'P', 'V']"
mp-1211202,LiCr2(MoO4)3,4,False,-0.1364195035742005,-0.3207604719106119,-0.3705469336976002,False,-0.0875818796871329,0.3271054849804491,"['Cr', 'Li', 'Mo', 'O']"
mp-768601,Li3VSiCO7,5,False,-0.6171778371787611,-0.0546722110420945,0.6168628933799879,True,-0.6998918359657447,0.3496018254911013,"['C', 'Li', 'O', 'Si', 'V']"
mp-1291001,Li4MnO3,3,True,0.0069069431159358,0.392984730380262,0.2781115140431455,True,-0.8011661194523692,-0.2561606937680324,"['Li', 'Mn', 'O']"
mp-775316,Li2TiFe3O8,4,True,-0.1635681750194758,-0.0941242606069581,-0.8682128617659177,False,0.0992702024406789,0.5195339785031994,"['Fe', 'Li', 'O', 'Ti']"
mp-766829,Li15(FeO4)4,3,True,0.1925472468046005,0.4150064814008769,-0.8682128617659177,False,-0.8854280443105886,1.067549862490981,"['Fe', 'Li', 'O']"
mp-756512,Li3Cr3CoO8,4,True,-0.1686167125300261,-0.0803070692722118,-0.8682128617659177,False,0.3160907591431598,-0.4120824248069045,"['Co', 'Cr', 'Li', 'O']"
mp-760026,Li6Mn5SbO12,4,True,-0.1429417583492954,0.0410322883020338,-0.7692213533528736,False,0.1649932072008531,-0.4822436947431022,"['Li', 'Mn', 'O', 'Sb']"
mp-758030,Li3V3P8O29,4,False,-0.6035666868994375,-0.1035034149366812,-0.0700515066544454,False,-0.8358259550971692,2.156957001986485,"['Li', 'O', 'P', 'V']"
mp-773179,Li2TiCo3O8,4,True,0.008420455832032,0.0343367283179104,-0.8682128617659177,False,0.6012873892138879,-0.4820413029317049,"['Co', 'Li', 'O', 'Ti']"
mp-768645,Li2FePCO7,5,True,-0.3436926282220549,-0.0405310893336409,0.3421648430162922,True,-0.6920134909905915,0.3487259076158194,"['C', 'Fe', 'Li', 'O', 'P']"
mp-1317583,Li4Cr3NiO8,4,True,-0.18834177492649,0.0028267573232705,-0.8682128617659177,False,0.3118310945282227,-0.3955933774053753,"['Cr', 'Li', 'Ni', 'O']"
mp-867888,LiTm2Pt,3,False,1.2926128673634405,-7.123374079233073,-0.8682128617659177,False,4.666642547502455,-0.996778554056438,"['Li', 'Pt', 'Tm']"
mp-772215,LiNb8O10,3,False,-0.4562181781100963,-0.6003638829850115,-0.8682128617659177,False,1.6277172427921391,0.1735320614533625,"['Li', 'Nb', 'O']"
mp-1305526,Li2V5O10,3,False,-0.5285052161726671,-0.2854799992907163,-0.2102781919645787,False,-0.0482133224101357,-0.1207308316575796,"['Li', 'O', 'V']"
mp-1040085,NaLiMg30O31,4,False,-1.055320910789108,0.3137652615371092,0.8532372817999186,True,-0.278008784426731,0.5664870867094176,"['Li', 'Mg', 'Na', 'O']"
mp-1035536,LiMg14SiO16,4,False,-1.0159184560114245,0.2795369316551065,-0.4148967544982462,False,-0.2317620051037132,-0.3488639429506691,"['Li', 'Mg', 'O', 'Si']"
mp-776176,Li4Ti3V3(CuO8)2,5,False,-0.6046216968401377,-0.1329887164234199,-0.6825530012539005,False,0.1602249933675935,-0.3881332310172107,"['Cu', 'Li', 'O', 'Ti', 'V']"
mp-1175368,Li7Mn5O12,3,True,-0.1409820239739716,0.0683887259933777,-0.8682128617659177,False,0.1066185027107876,-0.60619448198652,"['Li', 'Mn', 'O']"
mp-1101557,Li2Mn(PO4)2,4,True,-0.5364067746835468,-0.0176158131899309,-0.4241052669087627,False,-0.4867296699091475,0.4037354121910284,"['Li', 'Mn', 'O', 'P']"
mp-1100629,Li9Mn2Co5O16,4,True,0.2662041519552161,0.2458214229161727,-0.8682128617659177,False,0.2151618736315471,-0.3867514521228832,"['Co', 'Li', 'Mn', 'O']"
mp-1112680,Cs2LiCeI6,4,False,0.3442110818384027,1.083884052355184,-0.6940636417670453,False,0.3176297699613321,0.0945589868104715,"['Ce', 'Cs', 'I', 'Li']"
mp-1275037,Li2V3SnO8,4,False,-0.4809816390675339,-0.1354681660614827,-0.1051928150445749,False,0.3548851149488544,-0.3119929371420571,"['Li', 'O', 'Sn', 'V']"
mp-1100536,Li9Mn7O16,3,True,-0.1865482703582841,0.0344500762244143,-0.2360078589939612,False,0.1229495802738971,-0.3812706885327199,"['Li', 'Mn', 'O']"
mp-1040267,CsLiMg30O31,4,False,-0.930100709946702,0.3487870019193133,0.38014995670967,True,-0.2013361716029772,0.6593259273988329,"['Cs', 'Li', 'Mg', 'O']"
mp-755918,Li4Mn3(CoO4)3,4,True,0.2098980739086639,0.0655930911526103,-0.8682128617659177,False,0.3271552429825268,-0.6031889652034048,"['Co', 'Li', 'Mn', 'O']"
mp-1175251,Li7Mn4CoO12,4,True,-0.0414519351299323,0.1191623494503166,-0.8682128617659177,False,0.1054044463279633,-0.6009988911041428,"['Co', 'Li', 'Mn', 'O']"
mp-770799,Li5NbO5,3,False,-0.6157265374838959,0.2056053160432221,1.788916936218433,True,-0.5715355310354081,-0.5506691145435646,"['Li', 'Nb', 'O']"
mp-768737,Li3Mn2P2(CO7)2,5,True,-0.3112544079825723,-0.0900777556543867,-0.8682128617659177,False,-0.7108412582001866,0.3341032786330569,"['C', 'Li', 'Mn', 'O', 'P']"
mp-758474,Li4V3(OF2)4,4,False,-1.0216624706585955,0.2004998933781139,0.0953631684844531,True,-0.3872226394849764,-0.6385723553163974,"['F', 'Li', 'O', 'V']"
mp-1286090,Li3(FeO3)2,3,True,0.3434527749016807,0.2483733247130769,-0.8682128617659177,False,-0.101822915872422,-0.6291034728537122,"['Fe', 'Li', 'O']"
mp-532007,Li47Cu7N18,3,False,1.679342112308808,0.5614518178979474,-0.8682128617659177,False,-1.0865181716959635,1.0691868526741817,"['Cu', 'Li', 'N']"
mp-1100634,Li9Mn2Co5O16,4,True,0.2173533670391146,0.2329380815100212,-0.8682128617659177,False,0.1992141944616307,-0.3817380898386825,"['Co', 'Li', 'Mn', 'O']"
mp-765576,LiSi4NiO10,4,True,-0.8908093989647153,-0.1264224490312269,0.1611769483596102,True,-0.820030930065529,0.0456653379275187,"['Li', 'Ni', 'O', 'Si']"
mp-1175361,Li7Mn4CoO12,4,True,0.0490112097872129,0.1430200537357922,-0.8682128617659177,False,0.0079265222867188,-0.5763238211968,"['Co', 'Li', 'Mn', 'O']"
mp-1178316,Li19Cu4(HO2)8,4,False,0.3009982807123935,0.6366036792547581,-0.8682128617659177,False,-0.9065031493107653,0.0632425799926437,"['Cu', 'H', 'Li', 'O']"
mp-1176222,Li9Mn2Co5O16,4,True,0.1786134526223936,0.2227212642299531,-0.8682128617659177,False,0.2814702125628445,-0.4069819185189289,"['Co', 'Li', 'Mn', 'O']"
mp-1210909,LiIrO2,3,False,0.6612659833272385,0.2157497751786277,0.0952954588343758,True,3.787911107127644,-0.5315604958512231,"['Ir', 'Li', 'O']"
mp-766581,Li4TiS4,3,False,0.5346052371250655,0.645381194100152,0.4688495983109619,True,-1.1480933855638682,0.6842258832147197,"['Li', 'S', 'Ti']"
mp-777672,LiFeF3,3,True,-0.8549875470566306,0.3778051049660358,1.3047929381655805,True,-0.3143284445284312,-0.8879855555625863,"['F', 'Fe', 'Li']"
mp-1101736,LiFe3O4,3,True,0.3301720206795028,-0.0828064483575525,-0.1796734301296293,False,0.8450036460545699,-1.0100591796998013,"['Fe', 'Li', 'O']"
mp-1644001,Li7Mn5O12,3,True,-0.1854598787416386,0.0566586506431206,-0.1491363779447577,False,0.079623935113437,0.0389399584831761,"['Li', 'Mn', 'O']"
mp-1177173,Li5Mn4(P2O7)4,4,True,-0.6353742240572411,-0.0992756453264002,-0.7389551397683098,False,-0.5215702246806628,1.8293665818108948,"['Li', 'Mn', 'O', 'P']"
mp-1110834,K2LiYF6,4,False,-1.7676277148496216,0.4295015642219376,3.666370113562422,True,-0.4686176997582996,-0.7853014110098513,"['F', 'K', 'Li', 'Y']"
mp-26077,Li3Fe3(PO4)4,4,True,-0.5329430576311663,-0.0744764119369799,0.5000637469966073,True,-0.5105616630415629,1.498283174733818,"['Fe', 'Li', 'O', 'P']"
mp-1094599,LiMg5,2,False,2.154609555373641,0.9834756971320066,-0.8682128617659177,False,-1.4247260396061503,-0.8580924572660941,"['Li', 'Mg']"
mp-759062,LiCoPO4,4,True,-0.41260613115919,0.010302077090075,1.170998669612792,True,-0.813186107614599,-0.6296271804483479,"['Co', 'Li', 'O', 'P']"
mp-775902,LiV3OF11,4,False,-1.091224411910594,0.2506660826777794,0.011674040988883,True,-0.5646209682438283,0.0313831855459256,"['F', 'Li', 'O', 'V']"
mp-1176910,Li7Mn4(P2O7)4,4,True,-0.7242671813215318,-0.0837152217299527,-0.7215537596984387,False,-0.5389967208986473,1.9017100522667043,"['Li', 'Mn', 'O', 'P']"
mp-764912,Li3MnFeCo(PO4)3,6,True,-0.5640005583892228,-0.0761204428819087,0.535543603637124,True,-0.1984618432592866,1.4022998720225075,"['Co', 'Fe', 'Li', 'Mn', 'O', 'P']"
mp-776756,Li4TiMn2Ni3(PO4)6,6,True,-0.5711077190870556,-0.0802963433619015,0.6639211001837267,True,-0.278990244541612,0.1017094166038533,"['Li', 'Mn', 'Ni', 'O', 'P', 'Ti']"
mp-1174432,Li4MnCo2O7,4,True,0.1233330610124051,0.2096542541504217,-0.1243546460164578,False,0.2463774639257903,-0.5103449221343906,"['Co', 'Li', 'Mn', 'O']"
mp-754595,Li2Ti3FeO8,4,True,-1.0566639801828273,-0.3058449883952736,-0.8682128617659177,False,0.0518481739511465,-0.8105793755051703,"['Fe', 'Li', 'O', 'Ti']"
mp-1222581,LiCo4O5,3,True,0.7089230465788734,0.1246138282254357,-0.8682128617659177,False,1.2839840377024103,-0.965245251447547,"['Co', 'Li', 'O']"
mp-777429,Li4Mn3Fe(BO3)4,5,True,-0.5368859983393142,-0.1706604362625049,1.2166349737649071,True,-0.4028535510037708,0.2351893694469248,"['B', 'Fe', 'Li', 'Mn', 'O']"
mp-863392,LiFe(Si3O7)2,4,True,-1.0656964192093898,-0.2220830377516093,0.9045611965585296,True,-0.6331060508471895,1.8761374824959176,"['Fe', 'Li', 'O', 'Si']"
mp-752606,Li2CuSiO4,4,False,-0.4020555402275077,0.2309945091690649,-0.824540137466045,False,-0.2462000414296217,-0.9978377209521864,"['Cu', 'Li', 'O', 'Si']"
mp-706276,Li3Nb4O12,3,False,-0.8882457446395154,-0.3066986445046771,-0.8682128617659177,False,0.3557266096623177,-0.5836866091217265,"['Li', 'Nb', 'O']"
mp-758811,Li3Co2Si3O10,4,True,-0.5882575382852678,0.0013968626364773,-0.378062704856183,False,-0.5618540441376106,0.0236237977081612,"['Co', 'Li', 'O', 'Si']"
mp-1093827,LiZr2Ru,3,False,5.329029153163432,-2.373568795862404,-0.8682128617659177,False,-2.163472511893086,1.457764049972834,"['Li', 'Ru', 'Zr']"
mp-769590,Li2V3CrO8,4,False,-0.4992403362689276,-0.2572435663388144,-0.1804182362804798,False,0.0373934646658965,-0.364613702104843,"['Cr', 'Li', 'O', 'V']"
mp-1100510,Li9Mn7O16,3,True,-0.1681258452219656,0.0393085937071544,-0.4104279175931437,False,0.0936319237613895,-0.371618692444699,"['Li', 'Mn', 'O']"
mp-850404,Li2FeO2F,4,True,-0.3505930935918423,0.2809810867234176,0.4283592275647233,True,-0.1181743324601303,-0.5902160966314333,"['F', 'Fe', 'Li', 'O']"
mp-31969,Li3Mn2(PO4)3,4,True,-0.6408417048565513,-0.0762440756476099,-0.1337662873772055,False,-0.4690347533206623,1.3760989200574427,"['Li', 'Mn', 'O', 'P']"
mp-802351,Li3Cr2P4HO14,5,False,1.0351632936206496,0.3687392061758082,-0.8682128617659177,False,-0.7261892166820636,-0.3857874861387437,"['Cr', 'H', 'Li', 'O', 'P']"
mp-27222,Li2Mo4O13,3,False,-0.0745984912412893,-0.1839930025204703,0.7958194985343504,True,-0.000908004382649,1.0857265071701163,"['Li', 'Mo', 'O']"
mp-542665,Li3V6O13,3,False,-0.4906435650378501,-0.2333219083909447,-0.4178759791016484,False,-0.0892925329226815,-0.5295841285118297,"['Li', 'O', 'V']"
mp-28068,LiDy2Cl5,3,False,-0.0295989482696495,-1.991171568230638,-0.7676640314010944,False,0.6230181944862654,-0.195044780859633,"['Cl', 'Dy', 'Li']"
mp-758624,LiCuPO4,4,False,-0.2334765513101246,0.1833106060846999,-0.8682128617659177,False,-0.3499598012705993,0.7285573419940945,"['Cu', 'Li', 'O', 'P']"
mp-775267,Li3MnV(PO4)3,5,True,-0.7290652838184577,-0.0983779825473764,-0.6226299609354705,False,-0.5711053195242621,1.48732300138948,"['Li', 'Mn', 'O', 'P', 'V']"
mp-675370,LiMnO2,3,True,-0.1876469350353769,-0.0316042766788095,-0.2609927198724938,False,0.1795656660015154,0.3300329452794532,"['Li', 'Mn', 'O']"
mp-1176913,Li6V3P8O29,4,False,-0.7475578127142001,-0.0808772591611206,0.1689635581185017,True,-0.7811093938141447,2.126768855793524,"['Li', 'O', 'P', 'V']"
mp-776170,LiTi2O4,3,False,-1.354925820290146,-0.3725981000331566,-0.8682128617659177,False,0.0053880794978939,-0.3875663205317965,"['Li', 'O', 'Ti']"
mp-865940,LiThAu2,3,False,1.5035046516760655,0.784071385281072,-0.8682128617659177,False,5.555838932321807,-0.9863897790249772,"['Au', 'Li', 'Th']"
mp-1307940,Li2Fe3SnO8,4,True,0.1409244863626424,0.0667141423459835,-0.7533095855847022,False,0.472067436859523,-0.3167375263357486,"['Fe', 'Li', 'O', 'Sn']"
mp-1101513,LiV4P7O24,4,False,-0.7704650706342694,-0.2352974649047119,0.3803530856599011,True,-0.5467819593034845,1.4152058595582608,"['Li', 'O', 'P', 'V']"
mp-867561,Li2Cu2F7,3,False,-0.2479718781632057,0.1980478566805163,-0.8682128617659177,False,-0.2201063112703692,-0.4702241283822476,"['Cu', 'F', 'Li']"
mp-691164,Li3Mn2O4,3,True,0.0766013601982888,0.1455301404843834,-0.8039564038425397,False,0.0322566551951405,-0.7466022957964966,"['Li', 'Mn', 'O']"
mp-21270,LiFe(GeO3)2,4,True,-0.107216413951501,0.079680511955186,1.0042298014723472,True,0.4055158578586903,0.1005521150632026,"['Fe', 'Ge', 'Li', 'O']"
mp-776112,Li2Fe3NiO8,4,True,0.4458857861357618,0.1104464590712891,-0.8682128617659177,False,0.2873097892391751,0.451022647265999,"['Fe', 'Li', 'Ni', 'O']"
mp-1176023,Li9Mn2Co5O16,4,True,0.1910972698495136,0.2260136018999664,-0.7913624089281578,False,0.2951558294588938,-0.411038249638254,"['Co', 'Li', 'Mn', 'O']"
mp-1346423,Li3Co5OF11,4,True,0.0670042414814874,0.578712396348172,-0.0816298568176674,False,0.1739972019563525,-0.5919328040771533,"['Co', 'F', 'Li', 'O']"
mp-1027832,LiMg14Cu,3,False,2.2054069915717656,0.821904582198016,-0.8682128617659177,False,-1.1850607282572636,-0.2429172506932445,"['Cu', 'Li', 'Mg']"
mp-776625,Li3Ti2(PO4)3,4,False,-0.985369547572454,-0.130357998709938,-0.8503375141455054,False,-0.653779278916307,0.1502251498289918,"['Li', 'O', 'P', 'Ti']"
mp-759982,LiNiP2O7,4,True,-0.3186476686100713,0.052626455683427,-0.8057845643946268,False,-0.4291289913134348,0.2399063252980251,"['Li', 'Ni', 'O', 'P']"
mp-867167,LiCa2Tl,3,False,1.7806060665309642,-3.0433070695358597,-0.8682128617659177,False,0.3414669591255043,-0.9101142056333462,"['Ca', 'Li', 'Tl']"
mp-675383,Li3(Mo3S4)2,3,False,0.9524913645343775,0.0165110158346929,-0.8682128617659177,False,0.7214024073437242,0.4559653766296309,"['Li', 'Mo', 'S']"
mp-754052,Li3(Fe2S3)2,3,True,1.255897657621469,0.4317979087690289,-0.8682128617659177,False,-0.3434383090414722,-0.5914120072637704,"['Fe', 'Li', 'S']"
mp-1174431,Li7Co5O12,3,True,0.294883167844849,0.3059623149113485,-0.6969751567203708,False,0.3325678999922863,-0.6338915386270011,"['Co', 'Li', 'O']"
mp-1305214,LiCr(CoO3)2,4,True,0.4222140416138832,0.0393045007219762,-0.529258353478844,False,0.3484771017351792,-0.6256317315128097,"['Co', 'Cr', 'Li', 'O']"
mp-760143,Li2VCrP2(O4F)2,6,False,-0.8943927566506314,-0.0897788142893117,0.5608670127660424,True,-0.3927014141888377,-0.1929719438760746,"['Cr', 'F', 'Li', 'O', 'P', 'V']"
mp-776394,SrLi4NiO4,4,True,-0.0387798091248569,0.5159092155959782,0.977823037942192,True,-0.125174662789536,1.324877042618899,"['Li', 'Ni', 'O', 'Sr']"
mp-780477,Li3MnV(PO4)3,5,True,-0.7006156011838367,-0.0908749920650747,-0.6413855340068894,False,-0.3919426502620093,0.0092671094450708,"['Li', 'Mn', 'O', 'P', 'V']"
mp-1235721,LiRuPbO3,4,False,0.9802023734040564,0.3591038907967793,-0.8682128617659177,False,2.4477114195738983,-1.003079100394394,"['Li', 'O', 'Pb', 'Ru']"
mp-765709,Li5Ti2Fe3O10,4,True,-0.5222794244769305,-0.0529914508743245,0.1474995990439898,True,0.1603621309665758,-0.6877808015685549,"['Fe', 'Li', 'O', 'Ti']"
mp-753359,Li2MnO2F,4,True,-0.4731394665614841,0.2151987196131953,-0.1037032027428738,False,-0.145267724930499,-0.5877132239123604,"['F', 'Li', 'Mn', 'O']"
mp-765191,LiAgF4,3,False,0.17818435825264,-0.1670683936267571,-0.8682128617659177,False,0.2245951228333274,-0.3425022197613101,"['Ag', 'F', 'Li']"
mp-2763329,LiMnF5,3,True,-0.8867477418895972,-0.0505172913730059,-0.1837360091342686,False,-0.5620899218428699,-0.7212021736641219,"['F', 'Li', 'Mn']"
mp-772906,LiFePO4,4,True,-0.4908974214144527,-0.0657473597496477,1.5318911045249184,True,-0.5246363956297666,1.8221876933106416,"['Fe', 'Li', 'O', 'P']"
mp-1177915,Li2Mn3P5O18,4,True,-0.5634107351144824,-0.1377144259947788,-0.3865264111158483,False,-0.7081894981447413,0.9762609478399896,"['Li', 'Mn', 'O', 'P']"
mp-1175531,Li9Mn2Co5O16,4,True,0.1847473815802772,0.2243389557585793,-0.5304094175301585,False,0.3392629997888041,-0.4238460890303733,"['Co', 'Li', 'Mn', 'O']"
mp-1020024,Li6B4O9,3,False,-0.7714492768833632,0.0723538235733042,2.4467161867196183,True,-1.1423282177192433,0.9107740006619311,"['B', 'Li', 'O']"
mp-5840,LiScO2,3,False,-1.507963520053382,-0.1745628078297375,1.7751718772527374,True,-0.2161744185879288,-1.0033905754709027,"['Li', 'O', 'Sc']"
mp-764505,LiFe2(BO3)2,4,True,-0.3208208731132582,-0.1784763620094854,0.4190830055041301,True,-0.3313074095106482,0.1539042255578546,"['B', 'Fe', 'Li', 'O']"
mp-1324942,LiMnPHO5,5,True,2.962779737953088,0.881591965569044,-0.8682128617659177,False,-0.3952695524703769,-0.710438971514424,"['H', 'Li', 'Mn', 'O', 'P']"
mp-1095746,LiY2Pb,3,False,4.31906148375622,1.3257440555212618,-0.856499092302541,False,-2.222106090321173,3.142992796323945,"['Li', 'Pb', 'Y']"
mp-759008,LiMn2(CO4)2,4,True,0.1124755593608426,-0.178582799545131,-0.5163935199641521,False,-0.3534681466973264,0.3621853585836201,"['C', 'Li', 'Mn', 'O']"
mp-777838,Li32Mn13Cr3O48,4,True,-0.2369590354230915,0.126310752733314,-0.0190661401462212,False,-0.0270605545516393,1.1662600793137354,"['Cr', 'Li', 'Mn', 'O']"
mp-1273342,Li3Co2NiO6,4,True,0.4236048938637594,0.3094693773666058,-0.8682128617659177,False,0.4913308231534589,-0.6107874771588488,"['Co', 'Li', 'Ni', 'O']"
mp-766485,LiFe2(PO4)2,4,True,-0.3839301286591556,-0.1083961913317283,-0.1961268750984192,False,-0.3113624750705775,0.1131331599617203,"['Fe', 'Li', 'O', 'P']"
mp-1178153,K4Li5Cr2O8,4,False,0.0247863951093296,0.4311265728882641,-0.1376257374316122,False,-0.7310574793374003,0.2885633917283326,"['Cr', 'K', 'Li', 'O']"
mp-768960,Li5BO4,3,False,-0.4251917032997143,0.3816281946701913,2.899422907136594,True,-1.0154010019678827,0.6434867490972577,"['B', 'Li', 'O']"
mp-25911,LiV3(P3O10)2,4,False,-0.7377633208448291,-0.2091942445034774,0.526470510526763,True,-0.8554710805743202,1.3443706487957174,"['Li', 'O', 'P', 'V']"
mp-777764,LiFeP3H8O13,5,True,0.0494163674976743,0.2337337121220151,-0.5534984082065245,False,-0.9028684748031816,0.2468591838259676,"['Fe', 'H', 'Li', 'O', 'P']"
mp-768020,Li2MnSiO4,4,True,-0.7662624532019392,-0.0486774306058618,1.2269945502267374,True,-0.4793925493017147,-0.2208876814764135,"['Li', 'Mn', 'O', 'Si']"
mp-757734,LiNbPO5,4,False,-0.863253293908434,-0.2181874123769749,-0.8682128617659177,False,-0.1049365921595652,-0.1129072365744613,"['Li', 'Nb', 'O', 'P']"
mp-753743,LiMnOF2,4,True,-0.7107355420505006,0.1996245136717832,0.5256579947258343,True,-0.2138380276284112,-0.5903204241118549,"['F', 'Li', 'Mn', 'O']"
mp-943492,LiFeSO4F,5,True,-0.2343083631223451,0.1632087473588362,0.0587999574426991,True,-0.4640970728919325,-0.1221749667096001,"['F', 'Fe', 'Li', 'O', 'S']"
mp-1175339,Li7Mn5O12,3,True,0.0676976294858295,0.123423485919084,-0.8682128617659177,False,0.0531517975435229,-0.5930074935336033,"['Li', 'Mn', 'O']"
mp-1210884,Li2Ce2Si3,3,False,1.5897420751286098,0.6329646073654079,-0.8682128617659177,False,0.5113185597304445,-0.4343964202128647,"['Ce', 'Li', 'Si']"
mp-779340,LiV4O5F7,4,False,-0.8905059775207984,0.0002642304581847,-0.8682128617659177,False,-0.2673741159996416,-0.0254855095531045,"['F', 'Li', 'O', 'V']"
mp-780142,Li5(NiO2)4,3,True,0.5281416372070534,0.4449329055882164,-0.8682128617659177,False,0.486916091393399,0.4642707907967929,"['Li', 'Ni', 'O']"