material_id,formula_pretty,n_elements,contains_transition_metal,formation_energy_per_atom,energy_per_atom,band_gap,is_semiconductor,density,volume,elements
mp-849410,Li2Mn3(BO3)3,4,True,-0.5051235297992763,-0.2307860541753751,-0.8682128617659177,False,-0.4159238021996624,0.3946650744983364,"['B', 'Li', 'Mn', 'O']"
mp-753562,LiCo2(PO4)2,4,True,-0.2768939842398036,-0.0205042422033704,-0.8439728070382364,False,-0.4984405243177989,-0.2337672930523314,"['Co', 'Li', 'O', 'P']"
mp-777788,Li8Mn7Fe(BO3)8,5,True,-0.5622149725834702,-0.1815233325661459,1.238708319690114,True,-0.3824221360497805,0.2196666670080755,"['B', 'Fe', 'Li', 'Mn', 'O']"
mp-1175253,Li7Mn4CoO12,4,True,-0.0729559678708379,0.110853839972552,-0.4398816153767781,False,0.1476935450179172,-0.6111405883082812,"['Co', 'Li', 'Mn', 'O']"
mp-758602,LiFeSiO4,4,True,-0.5350486305691379,-0.077799340695893,0.777063925462932,True,-0.5898917994483502,-0.202663586907016,"['Fe', 'Li', 'O', 'Si']"
mp-758403,LiP3W2O13,4,False,-0.5365672576560331,-0.2580469867463555,1.308584678569911,True,0.2753703659502598,0.3184512219506507,"['Li', 'O', 'P', 'W']"
mp-505381,NaLi3(H2N)4,4,False,1.558424810818806,0.724191446078446,0.8703001136194032,True,-1.7268580173352956,-0.7956318775938782,"['H', 'Li', 'N', 'Na']"
mp-765197,Li5V3P8O29,4,False,-0.703847545781009,-0.0886520672681967,-0.4903930143344611,False,-0.7956550117062816,2.1293428117265254,"['Li', 'O', 'P', 'V']"
mp-1100537,Li9Mn7O16,3,True,-0.1746266765508118,0.0375941395877955,-0.8682128617659177,False,0.1205499918262578,-0.3804887796284867,"['Li', 'Mn', 'O']"
mp-758489,LiMnSiO4,4,True,-0.7006745582363533,-0.1501625255043406,-0.7358404958647531,False,-0.1364904180780364,1.2599566197676135,"['Li', 'Mn', 'O', 'Si']"
mp-767772,Li3V2F9,3,False,-1.309473325860611,0.3412197728056133,0.6813901899036761,True,-0.5036997567502333,-0.2985080969738865,"['F', 'Li', 'V']"
mp-1177924,Li2Mn3WO8,4,True,-0.1683233716744686,-0.2433250237412156,-0.8682128617659177,False,0.791332516688157,-0.284544475283818,"['Li', 'Mn', 'O', 'W']"
mp-772524,LiTi2(PO4)3,4,False,-1.120151473962257,-0.2609452943361805,1.0043652207725025,True,-0.6499120132710785,0.0994301141440236,"['Li', 'O', 'P', 'Ti']"
mp-1147634,Li10Zn7(PS4)8,4,False,1.102363283803519,0.7927933280452983,0.9223688345288652,True,-0.9049262009784972,5.965750974808997,"['Li', 'P', 'S', 'Zn']"
mp-756288,Li3Cu4SnO8,4,False,0.5194108326176442,0.4840137621882376,-0.8682128617659177,False,1.10160229279926,-0.7746148527367744,"['Cu', 'Li', 'O', 'Sn']"
mp-676650,Li6Br3N,3,False,0.7821693255697185,1.028293286341606,0.5482053082015833,True,-0.7163628821387197,-0.7096027413357935,"['Br', 'Li', 'N']"
mp-756498,Li3FeNi3O8,4,True,0.57386785481041,0.3143962071748495,-0.8682128617659177,False,0.4765425831286043,-0.8290422323518375,"['Fe', 'Li', 'Ni', 'O']"
mp-772590,Li6V2B4SO16,5,False,-0.5929762203517766,-0.0147873644184985,0.4325572258695172,True,-0.7488123410017382,0.4925603944953839,"['B', 'Li', 'O', 'S', 'V']"
mp-758691,LiFe2(BO3)2,4,True,-0.3201759249280488,-0.1783062708293004,0.1659843335150995,True,-0.3486308751640089,0.165066180916932,"['B', 'Fe', 'Li', 'O']"
mp-754525,Li4Ti3V3(TeO8)2,5,False,-0.6545888688106626,-0.1263556014864948,-0.452678739241392,False,0.3406351594802342,0.6426905056559388,"['Li', 'O', 'Te', 'Ti', 'V']"
mp-781014,LiVP2HO8,5,False,-0.5549034035944345,-0.0539221152868925,0.0765398857629575,True,-0.5353035104631692,0.3795857027172913,"['H', 'Li', 'O', 'P', 'V']"
mp-765136,LiMn8F33,3,True,-0.4897370555820929,0.4537528859708313,0.1245460276677783,True,-0.4966186108310192,2.1839947770059926,"['F', 'Li', 'Mn']"
mp-762289,Li2P2WO8,4,False,-0.648582897463636,-0.1319255102429313,1.3346528938496798,True,0.1588162833582388,-0.771998652925859,"['Li', 'O', 'P', 'W']"
mp-779011,Li6MnFe5(BO3)6,5,True,-0.4203206458448297,-0.1203985189773458,1.2301769037803716,True,-0.3184606248468567,-0.1710659747216627,"['B', 'Fe', 'Li', 'Mn', 'O']"
mp-1174495,Li7Mn2(CoO4)3,4,True,0.0846266727821653,0.2014622806578937,-0.0834580173697545,False,0.207144539548751,-0.6154269414010195,"['Co', 'Li', 'Mn', 'O']"
mp-861039,LiFeSiO4,4,True,-0.543618170144459,-0.0800593720184603,0.9133634510685807,True,-0.5146204078756538,-0.2417424472286689,"['Fe', 'Li', 'O', 'Si']"
mp-554560,Li4Be3P3BrO12,5,False,-0.9590995508070068,0.0733385547112926,3.23756489962274,True,-0.8026353611820526,0.3395657356890084,"['Be', 'Br', 'Li', 'O', 'P']"
mp-886023,Li5Fe3(SbO5)2,4,True,3.508808914287162,1.1194050209857835,-0.8682128617659177,False,0.6725417600577759,-0.6273654937678992,"['Fe', 'Li', 'O', 'Sb']"
mp-1222830,Li2InFe(P2O7)2,5,True,-0.6509575923696607,-0.0306466863220659,0.989198259155182,True,-0.2862824964735675,0.2987019709158956,"['Fe', 'In', 'Li', 'O', 'P']"
mp-1638898,Li2FePHO5,5,True,-0.3175508206202594,0.1250197902635115,1.6955453287618063,True,-0.4838284026064841,-0.6625014708123268,"['Fe', 'H', 'Li', 'O', 'P']"
mp-753388,Li2Cu2F5,3,False,-0.2998082798903548,0.1025326822760671,-0.8682128617659177,False,-0.0545746780830265,-0.6213356627489869,"['Cu', 'F', 'Li']"
mp-20105,LiIn(MoO4)2,4,False,-0.0848359588795261,-0.0780547083329063,1.0459389459199782,True,0.8935635619257567,-0.4053961605572945,"['In', 'Li', 'Mo', 'O']"
mp-758367,LiP4WO12,4,False,-0.53314842698607,-0.1477659452028715,1.964284929918698,True,-0.0771127682848515,1.435256493904142,"['Li', 'O', 'P', 'W']"
mp-1235261,LiLa2Co2Sb2(PbO6)2,6,True,-0.1472016233644094,0.1029887155865509,-0.8682128617659177,False,2.373267281128007,-0.4151468451302509,"['Co', 'La', 'Li', 'O', 'Pb', 'Sb']"
mp-861603,Li2SiNiO4,4,True,-0.513433751070494,0.1406561822332187,1.3978259973718214,True,-0.3414837748065614,-0.2633762944427677,"['Li', 'Ni', 'O', 'Si']"
mp-765559,LiAgF4,3,False,0.1057664950705379,-0.1861670438711966,0.0386224817196571,True,0.494694259129416,-0.8305935630786958,"['Ag', 'F', 'Li']"
mp-766500,Li5Mn3(BO3)4,4,True,-0.574351970543048,-0.1012209911421413,-0.8682128617659177,False,-0.4849144973169439,0.1399064036813158,"['B', 'Li', 'Mn', 'O']"
mp-767402,LiLaTi2O6,4,False,-1.6125920963475435,-0.4046908235003733,0.3879365664685619,True,0.6162509214350163,-0.5451283581937144,"['La', 'Li', 'O', 'Ti']"
mp-1175960,Li9Mn2Co5O16,4,True,0.3578395189512786,0.2699882755044332,-0.6917615136644164,False,0.2906925399807616,-0.4097197160911008,"['Co', 'Li', 'Mn', 'O']"
mp-25857,Li4Mn5(P3O11)2,4,True,-0.6836050674925749,-0.1690704056223533,1.2315988064319947,True,-0.4732008039936224,1.4099921875103345,"['Li', 'Mn', 'O', 'P']"
mp-1176362,Na3Li3Fe2P2(CO7)2,6,True,-0.3585168833265393,0.0464541976168647,1.784312680013175,True,-0.5969485399860026,0.4779650387433887,"['C', 'Fe', 'Li', 'Na', 'O', 'P']"
mp-1176657,LiMnCoO4,4,True,0.3080095480969626,0.0450560587713647,-0.7015117032755513,False,0.3824494804738069,-0.8280709724453093,"['Co', 'Li', 'Mn', 'O']"
mp-861963,LiLu2Os,3,False,1.8169043605719737,0.4090797979315499,-0.8682128617659177,False,5.424274336263204,-1.0169130646909703,"['Li', 'Lu', 'Os']"
mp-1222855,LiGa3P2O11F3,5,False,-0.1122702074134141,0.31963798368608,-0.8682128617659177,False,-0.3201477679033861,0.2597946865623405,"['F', 'Ga', 'Li', 'O', 'P']"
mp-850939,Li2MnV(P2O7)2,5,True,-0.7595503750901448,-0.1518259776408374,-0.8534521580490623,False,-0.5982146286954847,-0.4530473497672836,"['Li', 'Mn', 'O', 'P', 'V']"
mp-1045389,Li(VS2)2,3,False,0.836101332860866,0.2409501751429526,-0.8682128617659177,False,-0.4124099544929373,-0.5126455231868904,"['Li', 'S', 'V']"
mp-760346,Li2Co4OF8,4,True,-0.387000038498779,0.4190416607430522,0.9956983855626044,True,-0.1142953552343967,-0.1193200393043962,"['Co', 'F', 'Li', 'O']"
mp-765082,Li2V4P4O15,4,False,-0.6442577446138255,-0.2099610816744549,0.5631691408686714,True,-0.621393071082161,2.7149884183295883,"['Li', 'O', 'P', 'V']"
mp-775013,Li4Mn3Fe3(SbO8)2,5,True,-0.0458573236989359,-0.0065328746252644,-0.8682128617659177,False,0.6070687423115917,-0.3531767762793552,"['Fe', 'Li', 'Mn', 'O', 'Sb']"
mp-1175016,Li7Mn2(CoO4)3,4,True,0.1294161660380501,0.2132745439411774,-0.8136388838035962,False,0.2061783449684323,-0.6152053551587432,"['Co', 'Li', 'Mn', 'O']"
mp-25827,LiMo2P3O11,4,False,-0.5495161466921347,-0.2151941533965837,1.4996613110881134,True,-0.0893901538437834,0.0021005692083581,"['Li', 'Mo', 'O', 'P']"
mp-1221217,Na3LiV4O12,4,False,-0.4429736930278274,-0.0526763105461763,1.2693807911751411,True,-0.6355433460917446,-0.4305201599974345,"['Li', 'Na', 'O', 'V']"
mp-759199,Li4Cr3FeO8,4,True,-0.3316752510593809,-0.0837533274424666,0.5870706473459655,True,0.3173867880242002,-0.82093229605933,"['Cr', 'Fe', 'Li', 'O']"
mp-1222501,LiMn2O4,3,True,0.2223644401235004,-0.0616157058763077,-0.8682128617659177,False,0.4365014976530325,-0.8442981583909349,"['Li', 'Mn', 'O']"
mp-752491,Li3VCr(P2O7)2,5,False,-0.7652533246324142,-0.1188115587058479,-0.4507828690392269,False,-0.6304357653057032,-0.4327532001221319,"['Cr', 'Li', 'O', 'P', 'V']"
mp-757164,Li3Mn2(CoO4)2,4,True,0.261795244942666,0.1009386999183622,-0.8682128617659177,False,0.3486238621289093,-0.8154251639263413,"['Co', 'Li', 'Mn', 'O']"
mp-770704,Li2AlFeO4,4,True,-0.5655457988666333,0.0902764571362477,1.2248955510743404,True,-0.5417309735678718,-0.1899397110783642,"['Al', 'Fe', 'Li', 'O']"
mp-1097661,LiYCd2,3,False,3.724837176943519,1.7712110958231322,-0.8019928239902975,False,-2.238903821802189,2.5690256271725063,"['Cd', 'Li', 'Y']"
mp-28450,Li4P2O7,3,False,-0.8466495787706542,0.1302748682155141,2.9308401847724714,True,-0.9154839898927934,-0.4260504787972604,"['Li', 'O', 'P']"
mp-865870,LiZr2Os,3,False,1.746113454931014,-5.317652806897435,-0.8682128617659177,False,3.387716570013733,-1.031623824393623,"['Li', 'Os', 'Zr']"
mp-754733,Li4Ti2Cr3Co3O16,5,True,-0.295266116455942,-0.124082429897487,-0.5902647481985113,False,0.4144967900973243,-0.4565694374378643,"['Co', 'Cr', 'Li', 'O', 'Ti']"
mp-1111123,Li2InCuCl6,4,False,0.6964653067450163,1.0908539970233997,-0.824201589215659,False,-0.721103249891167,-0.5115567454799216,"['Cl', 'Cu', 'In', 'Li']"
mp-722280,LiCuH4Cl3O2,5,False,0.7144036986868582,0.8031658207690177,-0.5839677507413196,False,-0.9778887696847296,0.5458450933627291,"['Cl', 'Cu', 'H', 'Li', 'O']"
mp-1650315,Li4Fe(BO3)2,4,True,-0.5085972872110485,0.084400951361361,1.816271634849671,True,-0.707242284635734,0.1949222392228728,"['B', 'Fe', 'Li', 'O']"
mp-867313,LiTmPt2,3,False,1.028422733220235,-8.380235914126086,-0.8682128617659177,False,6.481002625320153,-1.036159916596782,"['Li', 'Pt', 'Tm']"
mp-26417,Li2Cr(PO3)4,4,False,-0.7011869859883512,-0.0893979376324967,1.4632335193465142,True,-0.7790743942271412,0.1776959679713848,"['Cr', 'Li', 'O', 'P']"
mp-1174776,Li4MnCo2O7,4,True,0.1684437112399658,0.2215512156615472,-0.7106525060359892,False,0.2258052025037978,-0.5048703203862182,"['Co', 'Li', 'Mn', 'O']"
mp-1174364,Li7Co5O12,3,True,0.3353964023500248,0.3166468071358659,-0.569003918074232,False,0.3358920020715537,-0.6345975532824727,"['Co', 'Li', 'O']"
mp-1222477,LiVZnO4,4,False,-0.3467306077592103,0.1190817899188524,1.4000604158243728,True,-0.3399145820294902,0.4237657082247926,"['Li', 'O', 'V', 'Zn']"
mp-1235392,Rb2LiNd2(WO4)4,5,False,-0.6542868679811137,-0.3097637524978253,0.5010116820976891,True,1.982386284054941,-0.1969729236612749,"['Li', 'Nd', 'O', 'Rb', 'W']"
mp-975799,LiZn3,2,False,1.9965051240158769,-0.0468769610533469,-0.8682128617659177,False,1.5826525810362069,-0.9195690662916424,"['Li', 'Zn']"
mp-777271,Li3Mn4(BO3)4,4,True,-0.5383592104257723,-0.2238634831931621,-0.6195153170319143,False,-0.3984636365321108,0.9314766964994524,"['B', 'Li', 'Mn', 'O']"
mp-867108,LiDyTl2,3,False,1.737664402067788,-8.210882660746474,-0.8682128617659177,False,4.149046209192244,-0.9595539603288408,"['Dy', 'Li', 'Tl']"
mp-779349,LiFeOF2,4,True,-0.5267049589023796,0.2883146963661941,0.3529306773785864,True,-0.1748885459603126,0.0458605934580918,"['F', 'Fe', 'Li', 'O']"
mp-1175333,Li7Mn4CoO12,4,True,0.0574664648903261,0.1452499449925365,-0.8682128617659177,False,0.1022815639070579,-0.6002369431904916,"['Co', 'Li', 'Mn', 'O']"
mp-32398,Li3Ni(PO4)2,4,True,-0.4603248973920961,0.1340405150110248,-0.8682128617659177,False,-0.3797558560934187,0.3857111960211966,"['Li', 'Ni', 'O', 'P']"
mp-1174108,Li3Co2O5,3,True,0.3412055602910718,0.330811133349843,-0.8130294969529003,False,0.2159560046354674,-0.7232544360611689,"['Co', 'Li', 'O']"
mp-1210856,LiGaPO5,4,False,-0.3750530476540499,0.1670992009020528,-0.8202744295111744,False,-0.1366444494487665,-0.7307064047498982,"['Ga', 'Li', 'O', 'P']"
mp-776141,Li4Fe3Co2Sb3O16,5,True,0.1722658563743458,0.1451889444831341,-0.7315747879098824,False,0.8631634793923454,-0.3492131959843018,"['Co', 'Fe', 'Li', 'O', 'Sb']"
mp-1178034,Li2Cr(CO3)2,4,False,-0.0933645913188291,-0.1111166346034183,1.07295509630083,True,-0.9332547883765344,-0.4812691465201109,"['C', 'Cr', 'Li', 'O']"
mp-1147727,Li4Zn(PS4)2,4,False,1.0058568348951284,0.7820647633157133,0.942681729552062,True,-1.0465090755327646,1.4705269435670374,"['Li', 'P', 'S', 'Zn']"
mp-768859,Li5Mn2P2(CO7)2,5,True,-0.4325464554156968,-0.0426358139065774,0.6496343640174117,True,-0.6819595003052406,0.3579981052647186,"['C', 'Li', 'Mn', 'O', 'P']"
mp-754716,Li2CuNiO4,4,True,0.5661622168604139,0.4734723477269316,-0.8682128617659177,False,0.6609762016373338,-0.8331156251773122,"['Cu', 'Li', 'Ni', 'O']"
mp-761133,LiMn3OF5,4,True,-0.8400234287745943,0.0431148207040754,0.3540140317798235,True,-0.1161180020839823,0.2780623500925261,"['F', 'Li', 'Mn', 'O']"
mp-1235187,LiEr2Tl2(WO4)4,5,False,-0.4932347027793787,-0.2949235914638551,-0.2420340178508435,False,3.144492382444451,-0.2499122676048808,"['Er', 'Li', 'O', 'Tl', 'W']"
mp-756495,Li3CuO2,3,False,0.3547630006229874,0.6786054857117154,0.895149555197782,True,-0.5782282676284832,-0.4647908238648112,"['Cu', 'Li', 'O']"
mp-1235178,LiCu6OF11,4,False,0.2368085135662291,0.7994153726552649,-0.8682128617659177,False,0.4223005370514111,-0.5670782245982466,"['Cu', 'F', 'Li', 'O']"
mp-775209,Li2MnNb3O8,4,True,-0.7209917638929815,-0.36880542393665,-0.8357122297288031,False,0.6299755965187509,-0.7521645514887481,"['Li', 'Mn', 'Nb', 'O']"
mp-1222653,Li2MgAg,3,False,1.980197962022077,1.459567282660277,-0.8682128617659177,False,-0.2532447409968068,-1.0304439371467042,"['Ag', 'Li', 'Mg']"
mp-772982,Li3Ti6Co3O16,4,True,-0.9801437039366536,-0.3121018854742777,-0.8682128617659177,False,0.2112611269907474,0.5091021155585846,"['Co', 'Li', 'O', 'Ti']"
mp-1306444,Li2V(OF)2,4,False,-0.9226977585331584,0.19180013362099,0.343789874618148,True,-0.4674481026325103,-0.3907827063087986,"['F', 'Li', 'O', 'V']"
mp-1178070,Li2Cu(Si2O5)2,4,False,-0.8814916052278677,-0.0437242780716283,-0.4335169082695105,False,-0.8534858527449246,1.4727723790277374,"['Cu', 'Li', 'O', 'Si']"
mp-754292,Li3CrBAsO7,5,False,-0.3806985175816668,0.0687440182420375,1.2074264613543917,True,-0.3988900201456031,0.4070537712525591,"['As', 'B', 'Cr', 'Li', 'O']"
mp-703343,Li2Sn(H5O4)2,4,False,0.4669079748927792,0.5377385283142009,1.9667224773214813,True,-0.7227699942819266,-0.2659748337814512,"['H', 'Li', 'O', 'Sn']"
mp-774863,LiNi9S10,3,True,1.517810322252244,0.5562915747870688,-0.8682128617659177,False,1.0302897230496528,-0.4624335885058864,"['Li', 'Ni', 'S']"
mp-755005,LiNbCrO4,4,False,-0.6526979120215262,-0.3516808891709889,-0.8682128617659177,False,0.4639757723317617,-0.3065471204108505,"['Cr', 'Li', 'Nb', 'O']"
mp-738389,Rb4Li(SO4)4,4,False,-0.0207085417466211,0.35469186384031,-0.8682128617659177,False,-0.7700351340946561,4.170968221566521,"['Li', 'O', 'Rb', 'S']"
mp-766406,Li3V(SiO3)3,4,False,-0.9583568131140706,-0.0852702194299361,0.6867392522597844,True,-0.8608031800845354,1.097509482526967,"['Li', 'O', 'Si', 'V']"
mp-765467,Li3V2F12,3,False,-1.0864891932053935,0.452419343491594,-0.8436342587878498,False,-1.163440591844012,0.4339212947466851,"['F', 'Li', 'V']"
mp-1176908,Li6V3P8O29,4,False,-0.7555753942299092,-0.0829917234444669,-0.0325403605116083,False,-0.7978095891887088,2.159606301227394,"['Li', 'O', 'P', 'V']"
mp-1189338,Cs2LiFe(CN)6,5,True,2.123554812808031,-0.0337260430872967,-0.8682128617659177,False,-0.8008425407647384,-0.3278966036022721,"['C', 'Cs', 'Fe', 'Li', 'N']"
mp-753452,Li6Mn(OF)3,4,True,-0.5928180078305807,0.4628447595974104,0.5965499983567913,True,-0.8103854913832206,0.284579765405533,"['F', 'Li', 'Mn', 'O']"
mp-1273164,Li4CoOF5,4,True,-0.7826585958900782,0.5598580984835698,-0.8682128617659177,False,-0.555788799423103,0.0605591874248951,"['Co', 'F', 'Li', 'O']"
mp-768701,Li4CrFe3O8,4,True,-0.0916337251936244,0.0224589782043949,0.4164423291511139,True,0.2613595210870877,-0.3690132182416301,"['Cr', 'Fe', 'Li', 'O']"
mp-766540,Li4TiS4,3,False,0.469982307018267,0.6283382894127122,0.7336620397633687,True,-1.1802602434565668,0.7307598786184412,"['Li', 'S', 'Ti']"
mp-1113975,Rb2LiLaCl6,4,False,-0.5466551587333771,0.8172719896298721,2.181903745267211,True,-0.6061589325604155,-0.3454974694733825,"['Cl', 'La', 'Li', 'Rb']"
mp-1176020,Li9Mn2Co5O16,4,True,0.1785486890672305,0.2227041842384392,-0.8682128617659177,False,0.2996454607053219,-0.4123603373694789,"['Co', 'Li', 'Mn', 'O']"
mp-758035,Li3Ti3(PO4)4,4,False,-0.9994368821158364,-0.1782696865451828,-0.8682128617659177,False,-0.615503300241832,0.6061430767714822,"['Li', 'O', 'P', 'Ti']"
mp-758755,Li3Co3OF7,4,True,-0.5777924438417101,0.4439759910005144,0.9178322879736848,True,-0.0871252249343964,-0.319934119626747,"['Co', 'F', 'Li', 'O']"
mp-772196,Li6V3P8O29,4,False,-0.7533670392713911,-0.082409317431433,0.0262993254055845,True,-0.7851341775862455,2.134624565967377,"['Li', 'O', 'P', 'V']"
mp-758581,Li4Mn3Nb2Sn3O16,5,True,-0.4344584014475164,-0.0941299318525679,-0.1590219868560467,False,0.7238857522660179,-0.2552746029619921,"['Li', 'Mn', 'Nb', 'O', 'Sn']"
mp-1208770,Sr3Li6Nb2O11,4,False,-0.9513020579402092,0.0855898118041394,1.4153627967418478,True,0.3596340741188957,0.2521028215613975,"['Li', 'Nb', 'O', 'Sr']"
mp-753405,LiCuF3,3,False,-0.3946394471770418,0.1225374487658225,-0.5136174243109826,False,0.0198415768062904,-0.5912854748348352,"['Cu', 'F', 'Li']"
mp-862673,LiY2Ru,3,False,1.902326175006208,0.2849497244348686,-0.8682128617659177,False,1.2633446633752163,-0.9950875353599516,"['Li', 'Ru', 'Y']"
mp-755147,Li3TiCr2O6,4,False,-0.6537571689821611,-0.1476528799643144,-0.8682128617659177,False,0.1655243289042074,-0.9158847626085778,"['Cr', 'Li', 'O', 'Ti']"
mp-30456,SrLiBi,3,False,1.0917535845666244,-5.527075046682868,-0.4918826266361614,False,1.3412106480774555,-0.2265118028128623,"['Bi', 'Li', 'Sr']"
mp-1176016,Li9Mn2Co5O16,4,True,0.1896652228540287,0.2256359303766907,-0.4754291816673728,False,0.2778782935219203,-0.4059106962455855,"['Co', 'Li', 'Mn', 'O']"
mp-850006,LiNiPO4,4,True,-0.3064325824743665,0.0943960543278356,0.8730084996224976,True,-0.1656000804519757,4.038391725199429,"['Li', 'Ni', 'O', 'P']"
mp-775160,Li4Ti2Fe4(CoO6)3,5,True,0.0257631004975408,-0.0247139204511516,-0.6371875357020947,False,0.2678236852620652,0.6372168349937388,"['Co', 'Fe', 'Li', 'O', 'Ti']"
mp-721086,Li2CuP6H20C2(N3O11)2,7,False,0.4443483577974128,0.2511585440798524,-0.5618944048161125,False,-1.1604243941939203,0.5303333089411433,"['C', 'Cu', 'H', 'Li', 'N', 'O', 'P']"
mp-26358,LiFeP2O7,4,True,-0.5638017915205462,-0.0829788889089711,0.8511382826475223,True,-0.5676563027025511,0.326542144667394,"['Fe', 'Li', 'O', 'P']"
mp-1174059,Li5Mn(CoO4)2,4,True,0.2395463630088565,0.2861620784137137,-0.7883154746746777,False,0.1182615239025344,-0.8284918367792935,"['Co', 'Li', 'Mn', 'O']"
mp-761342,Li4Co2Cu3Sb3O16,5,True,0.4053512156896053,0.3425367537739319,-0.8682128617659177,False,0.9291453019045754,-0.3447160164537087,"['Co', 'Cu', 'Li', 'O', 'Sb']"
mp-1013898,LiMo3P3O13,4,False,-0.4805988381507978,-0.2565707092794059,-0.0292902973078975,False,-0.1209935951800826,0.3622460076533445,"['Li', 'Mo', 'O', 'P']"
mp-41795,LiAlPO4F,5,False,-1.2671230386025405,0.0158555069218455,3.263633114902509,True,-0.4930555998563377,-0.7674787053425158,"['Al', 'F', 'Li', 'O', 'P']"
mp-756999,Li2Mn2Si4O11,4,True,-0.9417697713433784,-0.2103017948938616,1.1607068028010392,True,-0.5729001403173989,0.1274302964604445,"['Li', 'Mn', 'O', 'Si']"