material_id,formula_pretty,n_elements,contains_transition_metal,formation_energy_per_atom,energy_per_atom,band_gap,is_semiconductor,density,volume,elements
mp-731702,LiCrPO4,4,False,2.2747547684845992,0.6145977519959843,-0.8682128617659177,False,-0.5602734876122537,-0.2247262287052511,"['Cr', 'Li', 'O', 'P']"
mp-1172980,Li17(CoO4)3,3,True,0.0569369577157345,0.5271242653650784,-0.6346822786492339,False,-0.7400531536923699,0.5273720090867583,"['Co', 'Li', 'O']"
mp-1176115,Li9Mn2Co5O16,4,True,0.2143320335461074,0.2321412699345451,-0.8682128617659177,False,0.2561138352837079,-0.3993603368008566,"['Co', 'Li', 'Mn', 'O']"
mp-776061,Li4Ti3Mn3Nb2O16,5,True,-0.9478363625515268,-0.3503248433522727,-0.1630168562106079,False,0.180779947322343,-0.3102966478468132,"['Li', 'Mn', 'Nb', 'O', 'Ti']"
mp-772464,Li4Cr3Fe5O16,4,True,0.0876608418984987,-0.076552066132825,-0.8682128617659177,False,0.2512948582034685,-0.4025839571252938,"['Cr', 'Fe', 'Li', 'O']"
mp-1035550,LiCeMg14O16,4,False,-1.0830077603683217,0.2572045505626213,-0.5083360716049514,False,-0.0056546085667797,-0.2856202433667743,"['Ce', 'Li', 'Mg', 'O']"
mp-767447,LiVSiO4,4,False,-0.8957723089315315,-0.1983777509571667,0.677192191598882,True,-0.3409524502022656,-0.3505753439702181,"['Li', 'O', 'Si', 'V']"
mp-1235563,LiEuTcO3,4,False,7.946153861710466e-05,-0.2698864293383264,-0.8682128617659177,False,2.108049232041888,-1.026297997838124,"['Eu', 'Li', 'O', 'Tc']"
mp-753154,Li(FeO2)3,3,True,0.5128164543668284,0.0199616407184248,-0.5862021691938711,False,0.0771258530918271,-0.5671398565937233,"['Fe', 'Li', 'O']"
mp-778253,LiV2(OF)3,4,False,-0.8211598554646264,0.011298879911376,-0.2553051092659981,False,-0.2417602430887222,1.182089827075362,"['F', 'Li', 'O', 'V']"
mp-694909,Li11Fe3B24(PbO24)2,5,True,-0.7482391113363749,-0.1476973827803996,-0.0739109567088521,False,-0.2717626770442305,1.1789588421168378,"['B', 'Fe', 'Li', 'O', 'Pb']"
mp-25845,Li2FeP2O7,4,True,-0.6214270045454866,-0.0215785039823444,2.003827365563854,True,-0.6415186436611244,0.4361166958096675,"['Fe', 'Li', 'O', 'P']"
mp-1111738,Na2LiTlBr6,4,False,0.7484698603209649,1.249119656778093,-0.4801688571727854,False,0.0117591817039599,-0.3005860736114946,"['Br', 'Li', 'Na', 'Tl']"
mp-770700,Li2Ti3O7,3,False,-1.3285488711749,-0.3141036970089764,1.1042369546365525,True,-0.3277460706353914,-0.4455198129386812,"['Li', 'O', 'Ti']"
mp-26817,LiVP2O7,4,False,-0.8010208142208247,-0.1617327663636227,-0.8682128617659177,False,-0.5217171255904064,0.2587127591904951,"['Li', 'O', 'P', 'V']"
mp-849407,Li2Mn3(BO3)3,4,True,-0.5000733800877157,-0.2294541860590707,-0.8682128617659177,False,-0.4111162653246182,0.933947743921924,"['B', 'Li', 'Mn', 'O']"
mp-1185294,LiAc2Pb,3,False,1.8793331803965183,1.028742423937577,-0.8682128617659177,False,2.8574712902115915,-0.8387434779718719,"['Ac', 'Li', 'Pb']"
mp-1174574,Li4MnCo2O7,4,True,0.2078780275116025,0.2319511664610726,-0.8682128617659177,False,0.2475415802172324,-0.5106522690462406,"['Co', 'Li', 'Mn', 'O']"
mp-850915,LiFe2O2F3,4,True,-0.380829418218902,0.1875491571710988,0.2494703320604382,True,-0.1753467080168076,-0.6673326380473075,"['F', 'Fe', 'Li', 'O']"
mp-755289,Li3Y3ZrO8,4,False,-1.5307961183217842,-0.2844670077957176,2.0191974561314066,True,0.2464572692580803,-0.6481725084598549,"['Li', 'O', 'Y', 'Zr']"
mp-574275,Li17Pb4,2,False,1.8555241044439237,1.3745546739727328,-0.8682128617659177,False,0.1384064454371836,4.498152575516795,"['Li', 'Pb']"
mp-777785,LiFeF4,3,True,-0.8657929757722888,0.4383162838352963,1.1990304647448036,True,-0.5427042877087174,-0.3325079428711059,"['F', 'Fe', 'Li']"
mp-1207120,Ba2LiIO6,4,False,-0.2873871228100031,0.3906160300117183,-0.8682128617659177,False,1.396521186488381,-0.823758302025674,"['Ba', 'I', 'Li', 'O']"
mp-532759,LiZnCr3(SO4)6,5,False,-0.0378203406813717,0.0721644823436054,-0.8682128617659177,False,-0.5132223849673091,1.348747575010204,"['Cr', 'Li', 'O', 'S', 'Zn']"
mp-1177780,Li2VFe(P2O7)2,5,True,-0.7198208930271044,-0.1322218005715749,0.4005305613829439,True,-0.570764005108706,0.3128196511588383,"['Fe', 'Li', 'O', 'P', 'V']"
mp-1173956,Li3Mn2CoO6,4,True,0.0025965496787491,0.0676177575316956,-0.2184033499738581,False,0.2595976970601011,-0.907194583018619,"['Co', 'Li', 'Mn', 'O']"
mp-1211215,Li2Nd(NO3)5,4,False,0.5970151245199367,0.1256632989567977,1.6335232892909797,True,-0.682056357376187,2.0498823830275734,"['Li', 'N', 'Nd', 'O']"
mp-685233,Li3Mn10O20,3,True,0.3027201118981986,-0.1074020978353319,-0.8682128617659177,False,0.2721237543043886,0.8154690221892248,"['Li', 'Mn', 'O']"
mp-1192707,Li5W2O7,3,False,-0.2597412510940197,0.0175133834389736,0.5736641366306566,True,1.5006116641753766,-0.4150647996669944,"['Li', 'O', 'W']"
mp-1190412,RbLi(C2N3)2,4,False,1.8656900421772968,-0.141297965190347,2.164705494147572,True,-1.273868900604222,-0.072085729050017,"['C', 'Li', 'N', 'Rb']"
mp-866271,LiNiO2,3,True,0.5327233279995317,0.4036888367635193,-0.8682128617659177,False,0.5961230888265066,-0.9355496150755722,"['Li', 'Ni', 'O']"
mp-758199,LiCoSiO4,4,True,-0.2923272933654164,0.0416149762763543,-0.21481473851976,False,0.0571789331213193,-0.4483114700284115,"['Co', 'Li', 'O', 'Si']"
mp-1222532,Li7(SnO3)4,3,False,-0.1594798952483862,0.3767724027535343,-0.8682128617659177,False,0.6634058838149541,-0.5147118105003323,"['Li', 'O', 'Sn']"
mp-758721,LiV2P2H5O11,5,False,-0.2116176536482163,0.0693585311509299,0.4868603652315296,True,-0.8085567648218405,1.4165475774367489,"['H', 'Li', 'O', 'P', 'V']"
mp-1639283,Li7Mn5O12,3,True,-0.1811717635361124,0.0577895485862466,-0.2609927198724931,False,0.0671151826450545,0.0451408070437412,"['Li', 'Mn', 'O']"
mp-1281748,LiNiO2,3,True,0.5480307310961867,0.4077258343363215,-0.8682128617659177,False,0.6412458887108509,-0.8404619458406357,"['Li', 'Ni', 'O']"
mp-1174178,Li3MnCoO5,4,True,0.0559676212391618,0.1967264764095876,-0.4216677195059784,False,0.1115349538079655,-0.712519527470919,"['Co', 'Li', 'Mn', 'O']"
mp-1177454,Li4Cu3F12,3,False,-0.3185836368873334,0.2391761762863424,-0.85121773959651,False,-0.4716463968003413,1.57324221003879,"['Cu', 'F', 'Li']"
mp-1185227,Li3Eu,2,False,2.2705207416204547,-1.176002742876458,-0.8682128617659177,False,-0.7959421027933614,-0.5910293366657775,"['Eu', 'Li']"
mp-644092,Na2LiAlH6,4,False,1.8275345143571249,1.1877444427443886,0.9168843528726024,True,-1.5127960946434431,-0.9613967308363396,"['Al', 'H', 'Li', 'Na']"
mp-1029385,Li2SnN2,3,False,1.7387008165235869,0.5753456566926259,-0.8682128617659177,False,1.0617698746624271,-1.0938617321637367,"['Li', 'N', 'Sn']"
mp-849746,LiMn2(BO3)2,4,True,-0.5019077775015429,-0.2627396598280766,-0.4914763687356975,False,-0.4387452094043031,0.9414238576558424,"['B', 'Li', 'Mn', 'O']"
mp-1522292,SrLiSnSbO6,5,False,-0.2679244027152225,0.2660808202370158,-0.7910238606777712,False,1.1517183322942313,-0.8604297753646895,"['Li', 'O', 'Sb', 'Sn', 'Sr']"
mp-758417,LiV4(PO4)3,4,False,-0.6269119779385957,-0.2784845019809395,0.5669608812730008,True,-0.0460437893966937,0.0529137856908451,"['Li', 'O', 'P', 'V']"
mp-759181,LiMn(PO3)3,4,True,-0.6458806846641773,-0.120640880109414,2.403449720320209,True,-0.4766977122167105,0.6483867798260347,"['Li', 'Mn', 'O', 'P']"
mp-1177180,Li5V3P8O29,4,False,-0.7087750012142011,-0.0899515774136008,-0.1797411397797066,False,-0.8015012554281411,2.1408718928183164,"['Li', 'O', 'P', 'V']"
mp-26005,LiMn6P7O24,4,True,-0.6873386979471157,-0.2729959721482546,1.403716736928548,True,-0.2926200024729828,1.4752865897585077,"['Li', 'Mn', 'O', 'P']"
mp-1110747,Rb2LiPrI6,4,False,0.3869217204451206,1.124057365173113,1.1300343313160122,True,0.124388319576317,0.0777400644784506,"['I', 'Li', 'Pr', 'Rb']"
mp-1273748,LiV(CO3)2,4,False,-0.1111616727738624,-0.206434623021748,0.5338508623851911,True,-0.5320283089836141,-0.6608170885127882,"['C', 'Li', 'O', 'V']"
mp-585250,LiMn4(PO4)3,4,True,-0.6183863438726639,-0.2807686903704915,1.214062007061969,True,-0.1980794102367646,0.1822314042410133,"['Li', 'Mn', 'O', 'P']"
mp-802313,LiVFeP2(HO5)2,6,True,3.0720334040049395,0.8715100359962974,-0.8682128617659177,False,-0.4262569543468896,-0.7180374280223496,"['Fe', 'H', 'Li', 'O', 'P', 'V']"
mp-21932,Na3Li3Co2F12,4,True,-0.8175950782395704,0.6415023587738597,0.4160360712506507,True,-0.537936704867654,1.59785031058798,"['Co', 'F', 'Li', 'Na']"
mp-12403,LiBF4,3,False,-1.2839348854165251,0.1248007401453134,4.715124883610064,False,-1.0250647897846554,-0.6301981608779446,"['B', 'F', 'Li']"
mp-1097905,Li3Mn4O8,3,True,-0.0345206591020122,-0.0556872980114674,-0.6973137049707568,False,-0.0263746594294127,0.6668454008667315,"['Li', 'Mn', 'O']"
mp-1210819,LiMg2H7Os,4,False,1.8059918172800276,0.9556539254872364,1.3710129759412018,True,0.1916690300969953,-0.6374948818783237,"['H', 'Li', 'Mg', 'Os']"
mp-1110869,K2LiBiCl6,4,False,0.0870134135295862,1.0059841438953443,1.5816576973317509,True,-0.5928679040585006,-0.3896318438592034,"['Bi', 'Cl', 'K', 'Li']"
mp-759065,Li3V2(PO4)3,4,False,-0.8244393202222781,-0.1223976684493135,0.3884105340191032,True,-0.5945229126189955,1.4938722870558232,"['Li', 'O', 'P', 'V']"
mp-935266,LiC2NO6,4,False,1.130343935169563,0.1426199434427635,0.2258396641834529,True,-0.7478423228083222,-0.9813870334199049,"['C', 'Li', 'N', 'O']"
mp-1313788,Li3(NiO2)4,3,True,0.6831987627408218,0.3952607789571045,-0.8681451521158404,False,0.7171379716857774,-0.856718760583665,"['Li', 'Ni', 'O']"
mp-768868,Li2VBO4,4,False,-0.6065812855786269,-0.0492153745828348,0.7235733019018478,True,-0.4945878534506296,-0.793428988855182,"['B', 'Li', 'O', 'V']"
mp-771941,LiV(SO4)2,4,False,-0.1807597868342115,0.0680726635842331,0.3968065306286912,True,-0.7240102577406305,0.1097449389677589,"['Li', 'O', 'S', 'V']"
mp-10618,LiInSe2,3,False,1.098891006008865,-2.058574210180461,-0.3007382844678818,False,0.9902767657622046,-0.9817529423255767,"['In', 'Li', 'Se']"
mp-752530,Li2MnNi3O8,4,True,0.6199665126245241,0.2535098288899047,-0.8682128617659177,False,0.4812560384662311,-0.8381063716578065,"['Li', 'Mn', 'Ni', 'O']"
mp-774648,Li3V4FeO12,4,True,-0.3779595020528659,-0.1554004125939737,-0.8682128617659177,False,-0.497864486669186,0.2689544261391215,"['Fe', 'Li', 'O', 'V']"
mp-757212,LiV(CO3)2,4,False,-0.1091716144726592,-0.2059097880460851,0.4702715009625855,True,-0.5375611653996063,-0.36972071624191,"['C', 'Li', 'O', 'V']"
mp-793779,Li4Fe3Co3(SnO8)2,5,True,0.2558463739810008,0.1385736603593892,-0.8682128617659177,False,0.6870378147724641,-0.369411774691681,"['Co', 'Fe', 'Li', 'O', 'Sn']"
mp-34461,Li7Mn11O24,3,True,-0.0577716161848173,-0.0853891868261092,-0.2521904653624419,False,0.1352858422819506,0.0197633360297525,"['Li', 'Mn', 'O']"
mp-3647,LiGaS2,3,False,0.7674489429337092,0.7826691066710681,1.136534457723435,True,-0.5550031939264671,-0.3135798273705835,"['Ga', 'Li', 'S']"
mp-781664,Li3Ti2(CoO4)2,4,True,-0.5178646095512304,-0.0556826213641792,-0.4071101447393542,False,0.1805289063554777,-0.80587409308562,"['Co', 'Li', 'O', 'Ti']"
mp-759696,Li2Bi3P9O28,4,False,-0.5377137109410715,-0.0038477869899236,1.856423457345524,True,0.1047457757533108,0.4403138821175445,"['Bi', 'Li', 'O', 'P']"
mp-753239,LiSnPHO5,5,False,-0.2928817272835736,0.1890891134341474,0.7159221114431101,True,-0.1074320395033012,-0.6033159463119924,"['H', 'Li', 'O', 'P', 'Sn']"
mp-753128,Li2VO2F,4,False,-0.807249274924427,0.130861660813798,0.367149703894824,True,-0.2005010388388483,-0.9162577118715616,"['F', 'Li', 'O', 'V']"
mp-1176300,Li9Mn2Co5O16,4,True,0.1782358888623501,0.2226216899276863,-0.3911306673211062,False,0.3354425091312831,-0.4227524070745073,"['Co', 'Li', 'Mn', 'O']"
mp-772286,LiFePO4,4,True,-0.4801423563099584,-0.0629109431838838,1.5773242797268014,True,-0.5465166512609047,1.8563062724685584,"['Fe', 'Li', 'O', 'P']"
mp-1239018,LiBe2Rh,3,False,2.5657596897672827,1.0002761522326604,-0.8682128617659177,False,0.5234236349966713,-1.1028766628154016,"['Be', 'Li', 'Rh']"
mp-764063,Li2CoO2F,4,True,-0.2666714799680995,0.3677490327780073,-0.4070424350892775,False,0.2951548604668778,-0.9548673005102264,"['Co', 'F', 'Li', 'O']"
mp-1147738,Li4Zn(PS4)2,4,False,1.0082228755762064,0.7826887555387144,0.881946173432704,True,-1.060297358716774,6.053729440654069,"['Li', 'P', 'S', 'Zn']"
mp-1177309,Li4V3P8O29,4,False,-0.6568134506447418,-0.0964276713735694,-0.6785581318993393,False,-0.8366309582652491,2.18521892513505,"['Li', 'O', 'P', 'V']"
mp-765442,LiMnPO4,4,True,-0.6160568728249294,-0.1274383838135978,1.314136869876251,True,-0.6953689256693515,-0.1284277288673455,"['Li', 'Mn', 'O', 'P']"
mp-7778,Li2PrAs2,3,False,1.0119711712090222,-1.884598039273761,-0.8682128617659177,False,0.4689551926394021,-0.9099887165360842,"['As', 'Li', 'Pr']"
mp-758827,Li6Mn17O40,3,True,0.2497707835121834,-0.0769690022391522,-0.8682128617659177,False,0.0461781956557132,0.79013740307623,"['Li', 'Mn', 'O']"
mp-759392,Li2MnF5,3,True,-1.065612907314968,0.4399004150797035,-0.2380391484962808,False,-0.466683266162519,-0.2089414226193723,"['F', 'Li', 'Mn']"
mp-1210998,LiTb(SO4)2,4,False,-0.4715108950448211,0.098894036879183,2.935986118178348,True,-0.190695198043537,-0.2474191112930903,"['Li', 'O', 'S', 'Tb']"
mp-768238,Li3LaNiO4,4,True,-0.3566593516277658,0.2765347517852732,0.9073372922117,True,0.556789237221915,-0.0560863971890147,"['La', 'Li', 'Ni', 'O']"
mp-1640700,Li7Co5O12,3,True,0.2537509828037467,0.2951145878261927,-0.4656112824061605,False,0.4454673310596347,-0.0758132341565106,"['Co', 'Li', 'O']"
mp-1177325,Li4Nb2V3Co3O16,5,True,-0.3922993015558608,-0.1776948999753773,-0.0980833017864561,False,0.4085275554566014,-0.3594036025278909,"['Co', 'Li', 'Nb', 'O', 'V']"
mp-1280637,Li4MgNi3O8,4,True,0.2887136540894932,0.4145875331699146,-0.3544997466292756,False,0.3434418097091191,-0.4370867925244407,"['Li', 'Mg', 'Ni', 'O']"
mp-758858,Li2VO2F,4,False,-0.7600446234954243,0.1433108699997442,0.0816181095187567,True,-0.1947807330403365,-0.5959574064904362,"['F', 'Li', 'O', 'V']"
mp-1176212,Li9Mn2Co5O16,4,True,0.1822326902922781,0.2236757601425824,-0.6468700156631518,False,0.2647189930450863,-0.4019624822478106,"['Co', 'Li', 'Mn', 'O']"
mp-568322,Sr3Li3(NiN)4,4,True,1.5009472335300698,0.5402780516991614,-0.8682128617659177,False,0.1427848813217742,-0.5431810007310993,"['Li', 'N', 'Ni', 'Sr']"
mp-777972,LiMnF3,3,True,-1.149395286327108,0.2600053268330535,1.5816576973317509,True,-0.3833936014292253,0.1970631766036984,"['F', 'Li', 'Mn']"
mp-761001,Li3V3P8O29,4,False,-0.6026067826732648,-0.1032502608904519,-0.2368203747948897,False,-0.8344726806006936,2.15421341925493,"['Li', 'O', 'P', 'V']"
mp-13396,LiIn2Rh,3,False,1.6211267775205431,-3.233161487877525,-0.8682128617659177,False,3.0501899930427205,-1.0422461925355542,"['In', 'Li', 'Rh']"
mp-1177408,Li4Fe5SbO12,4,True,0.1529462469560716,0.0823205483936032,-0.5339980289842559,False,0.3272859032035081,-0.5360670789221774,"['Fe', 'Li', 'O', 'Sb']"
mp-1235342,LiFePbO3,4,True,0.5120807309492387,0.27454511728457,-0.0074200803329217,False,2.259654763059417,-1.0242331107737868,"['Fe', 'Li', 'O', 'Pb']"
mp-1385162,Li3Fe2(CoO4)2,4,True,3.4054309576447674,0.956775571728108,-0.8682128617659177,False,0.5746113019041892,-0.84451700525536,"['Co', 'Fe', 'Li', 'O']"
mp-780233,LiTi2O4,3,False,-1.291623749103738,-0.3559035434111569,-0.8682128617659177,False,-0.2183331337825702,0.3957422059394371,"['Li', 'O', 'Ti']"
mp-770668,Li24Mn11CrO36,4,True,-0.2311290873479919,0.1303217446995945,-0.0202172041975357,False,-0.014804913014778,0.5610270521217663,"['Cr', 'Li', 'Mn', 'O']"
mp-26046,LiCr2(PO4)3,4,False,-0.5313237439231803,-0.1623158396172097,-0.6472762735636157,False,-0.4398841953384124,1.216692398091324,"['Cr', 'Li', 'O', 'P']"
mp-690979,Li9Nd6Sb3TeO24,5,False,-0.8273631871361062,0.1055078977679256,1.340340504456174,True,1.267259996047227,1.8282251606524564,"['Li', 'Nd', 'O', 'Sb', 'Te']"
mp-1094600,LiMg2,2,False,2.141168632866015,1.0661336571729392,-0.8682128617659177,False,-1.553933412598134,-0.8650009234740703,"['Li', 'Mg']"
mp-758245,Li3SiBiO5,4,False,-0.4930051391504946,0.2544720782275912,1.3263923165402465,True,0.5884112193047841,0.1616301390147871,"['Bi', 'Li', 'O', 'Si']"
mp-1100581,Li9Mn7O16,3,True,-0.1838177012406892,0.0351702049641166,-0.2417631792505343,False,0.1089567883280319,-0.3766909292725014,"['Li', 'Mn', 'O']"
mp-555206,KLiCrO4,4,False,-0.1215035631632943,0.1602109055855727,1.0764759981048504,True,-0.884467587511505,1.3214930641544151,"['Cr', 'K', 'Li', 'O']"
mp-777809,Li3MnV(PO4)3,5,True,-0.6898426672238596,-0.0880338629738908,-0.6074629993181503,False,-0.6145267280287772,1.5497872590168549,"['Li', 'Mn', 'O', 'P', 'V']"
mp-763920,Li6Fe5CoO12,4,True,0.1189962384151499,0.1156202117777117,0.1862972285382966,True,0.316946165769853,-0.5890593049047524,"['Co', 'Fe', 'Li', 'O']"
mp-1309291,Li2CrCo3O8,4,True,0.4034602024509827,0.1020949104982618,-0.8682128617659177,False,0.3805205361183262,-0.415106671359136,"['Co', 'Cr', 'Li', 'O']"
mp-767527,Li6Sb3S,3,False,1.3579389544984888,1.0850806258229202,-0.8682128617659177,False,-0.1952035863361214,-0.0208886476465097,"['Li', 'S', 'Sb']"
mp-754791,Li3Mn2Fe(BO3)3,5,True,-0.5251840877399794,-0.1647856926869057,1.1468940341852647,True,-0.3585222633379155,-0.1552468816825452,"['B', 'Fe', 'Li', 'Mn', 'O']"
mp-831246,Li2Ti2NiO6,4,True,-0.8217614445444384,-0.1307292470545691,1.0585329408343602,True,-0.043511268737552,0.1374377094612847,"['Li', 'Ni', 'O', 'Ti']"
mp-767011,Li7Mn3(SiO6)2,4,True,-0.4987607187141604,0.0643817850516948,0.0363880632671048,True,-0.0556195530656919,-0.6346285103113037,"['Li', 'Mn', 'O', 'Si']"
mp-1175764,Li9Mn2Co5O16,4,True,0.1338426238454015,0.2109139233006124,0.1644947212133989,True,0.3297865497708387,-0.4211278855211414,"['Co', 'Li', 'Mn', 'O']"
mp-1100430,LiZnSb,3,False,1.6804983788365546,-1.5968877832105592,-0.8680097328156864,False,0.8650280174288094,-1.053592933762972,"['Li', 'Sb', 'Zn']"
mp-1235737,LiZn(CoO2)4,4,True,0.8751048045234755,0.2921540496253915,-0.8682128617659177,False,0.6773459810213726,-0.7991133178130633,"['Co', 'Li', 'O', 'Zn']"
mp-1181255,Li4P4O17,3,False,0.2411544930373823,0.2860943988831889,-0.4459077742336604,False,-1.338041056894126,3.404084331269936,"['Li', 'O', 'P']"
mp-757005,LiNiPO4,4,True,-0.355808902262576,0.0813741144285416,1.3997895772240634,True,-0.1980451045497574,-0.3463795417051576,"['Li', 'Ni', 'O', 'P']"
mp-1235682,LiNb2(PO5)2,4,False,-0.8734332576930994,-0.2858993687874391,-0.8682128617659177,False,-0.3474858184324537,-0.6226994598502285,"['Li', 'Nb', 'O', 'P']"
mp-571409,Cs2Li3Br5,3,False,0.0711134760506138,1.101180849840991,2.182039164567366,True,-0.0713642018894231,-0.3351718475931129,"['Br', 'Cs', 'Li']"
mp-755297,Li2CoO2,3,True,0.2600126249956507,0.3975752075928446,0.8549300230518526,True,0.1275856548721205,-1.1106219814528997,"['Co', 'Li', 'O']"
mp-758787,Li2FeSiO5,4,True,-0.3351576401923252,0.081738084644129,-0.8682128617659177,False,-0.4207343207101394,-0.1455773308948324,"['Fe', 'Li', 'O', 'Si']"
mp-753943,Li2FeS2,3,True,1.0393700371267132,0.61951297214234,-0.8682128617659177,False,-0.6814785388863343,-1.0031880657360954,"['Fe', 'Li', 'S']"
mp-16699,Li6Gd(BO3)3,4,False,-0.9175795005847888,-0.0791397965680228,-0.780258026315477,False,-0.4009217158622929,1.046398192002979,"['B', 'Gd', 'Li', 'O']"
mp-765203,Li11Cr3Fe3O16,4,True,-0.0687783476868259,0.1618920874875815,-0.8682128617659177,False,-0.1303205855011901,-0.3536407473468103,"['Cr', 'Fe', 'Li', 'O']"
mp-759234,Li3CuF6,3,False,-0.6964053124348146,0.2884206716145466,-0.1250317425172304,False,-0.2171714483614525,-0.1275596810839421,"['Cu', 'F', 'Li']"
mp-778489,Li3Mn2(SiO4)2,4,True,-0.6811681299420828,-0.0816674651494654,-0.6099682563710119,False,-0.5636429969436375,-0.1997255361714233,"['Li', 'Mn', 'O', 'Si']"
mp-540530,Li2Co(PO3)4,4,True,-0.5882087965153693,-0.0211252809046293,1.1539358377933069,True,-0.6352718811013145,-0.5726776285620282,"['Co', 'Li', 'O', 'P']"
mp-1177329,Li4Ti2Co7O18,4,True,0.1720019657011062,0.0638937602722592,-0.8682128617659177,False,0.3645531934186053,0.6016712737074669,"['Co', 'Li', 'O', 'Ti']"