material_id,formula_pretty,n_elements,contains_transition_metal,formation_energy_per_atom,energy_per_atom,band_gap,is_semiconductor,density,volume,elements
mp-850362,Li4MnFe3(BO3)4,5,True,-0.438506862180628,-0.1279833584035684,1.273917337730321,True,-0.3611887315487536,-0.5130604482057145,"['B', 'Fe', 'Li', 'Mn', 'O']"
mp-758541,Li2V2P2O9,4,False,-0.7096899092901269,-0.1445715016770464,0.3045182775733004,True,-0.4589381353944198,0.7754549227502118,"['Li', 'O', 'P', 'V']"
mp-1545896,Li2Sb,2,False,1.42666240408816,-1.032867286837842,-0.8682128617659177,False,0.0656932541229897,-0.2241324234138855,"['Li', 'Sb']"
mp-1176226,Li9Mn2Co5O16,4,True,0.2089475115390413,0.230721218333632,-0.4991952688445129,False,0.3293977795094602,-0.4210159839717854,"['Co', 'Li', 'Mn', 'O']"
mp-772312,Li2Fe2(Si2O5)3,4,True,-0.7946024610283589,-0.1508964582137802,1.1781758925209882,True,-0.7374264398830372,2.630154277522184,"['Fe', 'Li', 'O', 'Si']"
mp-1177777,Li2VFeP2(HO5)2,6,True,-0.426386564322977,0.0001859508322212,0.323409269944874,True,-0.4171274032456165,-0.1811770705884009,"['Fe', 'H', 'Li', 'O', 'P', 'V']"
mp-867148,LiHfRh2,3,False,1.3240411672255343,-5.061860381198199,-0.8682128617659177,False,4.847805770373677,-1.067543504808779,"['Hf', 'Li', 'Rh']"
mp-753379,Li7V(O2F)2,4,False,-0.4757669086655504,0.4585731309997087,-0.1904392644919235,False,-0.8254290156268845,0.2977694435275725,"['F', 'Li', 'O', 'V']"
mp-768508,Li2FePCO7,5,True,-0.347670242704286,-0.0415800994047102,0.5610024320661974,True,-0.6816626452888017,0.3397376954265874,"['C', 'Fe', 'Li', 'O', 'P']"
mp-757201,Li4Fe3O8,3,True,0.3915979476039258,0.2371462034071552,-0.7895342483760694,False,0.249725087124794,-0.8622114732793006,"['Fe', 'Li', 'O']"
mp-1284710,Li2MnCoO4,4,True,0.0924307280123895,0.1158342936140207,-0.5100965225069618,False,0.3442935928810769,-0.8069799091883089,"['Co', 'Li', 'Mn', 'O']"
mp-781106,Li32Mn5Cr11O48,4,True,-0.2478148369527439,0.1115751186638873,-0.8682128617659177,False,-0.0880553205740854,1.195649159865659,"['Cr', 'Li', 'Mn', 'O']"
mp-1235340,Rb3LiTbV2O8,5,False,-0.5803586886440774,0.0850646739495568,-0.3949224077254362,False,0.1415582098191685,-0.4488629796616805,"['Li', 'O', 'Rb', 'Tb', 'V']"
mp-770154,Li3V3(BO5)2,4,False,-0.648596839279848,-0.1768009419378558,-0.1022135904411728,False,-0.2314431883436031,-0.2373795897263215,"['B', 'Li', 'O', 'V']"
mp-1174223,Li7Co5O12,3,True,0.2950191335036126,0.3059981729227271,-0.8378112288812002,False,0.3009650990590113,-0.6270959107951755,"['Co', 'Li', 'O']"
mp-1175276,Li7Mn4CoO12,4,True,-0.0380820963792689,0.1200510717744928,-0.8682128617659177,False,0.1047799865386217,-0.6008466756241663,"['Co', 'Li', 'Mn', 'O']"
mp-849366,LiCo3OF5,4,True,-0.2506342543678774,0.3751314083732792,0.9180354169239168,True,0.3396667265097688,-0.5743409481546283,"['Co', 'F', 'Li', 'O']"
mp-758932,Li5FeHO4,4,True,0.1369015338080433,0.4880813528245045,0.8177574251594019,True,-0.9481749836283236,1.3194602458105458,"['Fe', 'H', 'Li', 'O']"
mp-762270,Li2Cu2F5,3,False,-0.3219583051407604,0.0966910906220956,-0.8085606600477969,False,0.0806607945168243,-0.068940922072268,"['Cu', 'F', 'Li']"
mp-768937,Li3FePCO7,5,True,-0.3341345312682968,0.0338954033205673,1.4817859634677006,True,-0.7281085299735441,-0.4036260551532461,"['C', 'Fe', 'Li', 'O', 'P']"
mp-772436,Li2AlFeO4,4,True,-0.5008113906221806,0.1073487617792698,1.3093971943708385,True,-0.6316428689158835,0.9586672387330594,"['Al', 'Fe', 'Li', 'O']"
mp-770528,Li5MnO4,3,True,-0.0313208533724854,0.4134704160406758,0.3280812358002085,True,-0.7394627054530022,0.9900449388592096,"['Li', 'Mn', 'O']"
mp-14232,LiBO2,3,False,-0.8605469258379042,-0.0289853322376445,4.061794470013981,False,-0.5693708913080952,-1.0735869201987052,"['B', 'Li', 'O']"
mp-1302630,Li2TiV3O8,4,False,-0.823224610557187,-0.3062623994916354,-0.2064864515602487,False,-0.0088788857490964,-0.3590431627044605,"['Li', 'O', 'Ti', 'V']"
mp-777894,LiVF3,3,False,-1.1699057923811031,0.2591287636032311,0.9707812343341502,True,-0.3828205141617393,-0.5448558218113659,"['F', 'Li', 'V']"
mp-755418,Li4Mn3Nb3(SbO8)2,5,True,-0.4680680032777936,-0.168593955086186,-0.8682128617659177,False,0.4809098296413273,-0.196544507948383,"['Li', 'Mn', 'Nb', 'O', 'Sb']"
mp-6153,Na3Li3V2F12,4,False,-1.3272519969156007,0.450498354227572,-0.8682128617659177,False,-0.6577015270662976,1.6705243954242313,"['F', 'Li', 'Na', 'V']"
mp-25948,LiVP4O13,4,False,-0.6052756960545004,-0.10182101295099,-0.1915903285432379,False,-0.9702694211062058,0.3869806336448238,"['Li', 'O', 'P', 'V']"
mp-1185409,LiPmGa2,3,False,1.6285938872258845,-2.0076945554283268,-0.8682128617659177,False,1.4273012410460548,-1.0006766068760222,"['Ga', 'Li', 'Pm']"
mp-1026641,LiMg14Ti,3,False,2.258696262260588,1.5426992190469413,-0.8682128617659177,False,-1.2729971465369476,-0.2128085675523063,"['Li', 'Mg', 'Ti']"
mp-756887,Li5Mn5V2O12,4,True,-0.2671742450697594,-0.1383754283971971,-0.8363216165794997,False,0.3487101300210717,-0.5609423406449482,"['Li', 'Mn', 'O', 'V']"
mp-1235655,LiCr6(OF)4,4,False,-0.0976810663825973,-0.1751717065184481,-0.8682128617659177,False,-0.0189726515616709,-0.6469323193830839,"['Cr', 'F', 'Li', 'O']"
mp-753111,Li7Fe3(SiO6)2,4,True,-0.3974681079655716,0.116193079793046,0.2900961221068315,True,-0.0416665457275762,-0.6345037656366654,"['Fe', 'Li', 'O', 'Si']"
mp-861882,LiGeIr2,3,False,1.7180128713050664,0.2358107702814906,-0.8682128617659177,False,7.555995734699274,-1.0902528265724585,"['Ge', 'Ir', 'Li']"
mp-555377,Li4WO5,3,False,-0.4364364529250547,0.1083095876515616,1.7652862683414483,True,0.9452732286874204,-0.6965321870066254,"['Li', 'O', 'W']"
mp-26163,Li6Cr9(PO4)8,4,False,-0.6117477168311832,-0.20514858088145,0.9826304230976822,True,-0.330217277464467,0.6308113287652772,"['Cr', 'Li', 'O', 'P']"
mp-1306442,Li3Mn2(SiO4)2,4,True,-0.6903242433787923,-0.0840821926827319,-0.1496780551453756,False,-0.5194039468494304,-0.2228137904672212,"['Li', 'Mn', 'O', 'Si']"
mp-1176305,Li9Mn2Co5O16,4,True,0.1632444410678871,0.2186680187545359,-0.6394219541546471,False,0.3398236115066039,-0.4240063270992704,"['Co', 'Li', 'Mn', 'O']"
mp-26118,LiMn2(PO4)3,4,True,-0.4311509073974393,-0.1200672128986496,-0.1407403813351698,False,-0.3284107512940825,1.1258290041494163,"['Li', 'Mn', 'O', 'P']"
mp-758816,Li2Mn(PO4)2,4,True,-0.5335049151554923,-0.0168505102971151,-0.4528818681916239,False,-0.4324064125493387,-0.4386814440980839,"['Li', 'Mn', 'O', 'P']"
mp-764655,Li6MnV3(PO4)6,5,True,-0.7260490989978367,-0.0970159487506824,-0.8667232494642167,False,-0.612209428668394,1.5328634092526094,"['Li', 'Mn', 'O', 'P', 'V']"
mp-1185238,LiTiPd2,3,False,1.596192558378629,-2.482833298673692,-0.8682128617659177,False,2.6529421217777767,-1.07181352325622,"['Li', 'Pd', 'Ti']"
mp-1223603,Li4B8H5O18,4,False,-0.4130666119483902,0.0444871043738651,-0.2478570477574926,False,-1.175528936381293,0.7213636540759861,"['B', 'H', 'Li', 'O']"
mp-1831091,Li(CoS2)2,3,True,1.440719958380681,0.5620995300264673,-0.8682128617659177,False,0.1155274112649748,-0.6195054731085929,"['Co', 'Li', 'S']"
mp-1147617,Li6Zn3(PS4)4,4,False,1.070396355353624,0.789439612459591,0.9478276629579384,True,-0.958949934956409,6.003538625280739,"['Li', 'P', 'S', 'Zn']"
mp-776482,Li2MnVP2(HO5)2,6,True,-0.4727032568265583,-0.0231835460194953,-0.5140236822114465,False,-0.4188219085547925,0.3444184323979244,"['H', 'Li', 'Mn', 'O', 'P', 'V']"
mp-756581,LiNdTi2O6,4,False,-1.5676457942396054,-0.387966797241498,0.8124083628032942,True,0.8025094302629148,-0.5737672309345523,"['Li', 'Nd', 'O', 'Ti']"
mp-782667,Li2MnSiO4,4,True,-0.738530934594194,-0.0413638404036118,1.1083672432912686,True,-0.519329239865698,-0.2004703438050867,"['Li', 'Mn', 'O', 'Si']"
mp-758266,Li4V2Co3Cu3O16,5,True,0.3704788030439669,0.1995173581030154,-0.8682128617659177,False,0.5972722555740357,-0.4604222966391675,"['Co', 'Cu', 'Li', 'O', 'V']"
mp-1020664,Rb2Li5(BO2)7,4,False,-0.8098097193282207,0.0036362104481032,2.266540807863865,True,-0.738737660990163,0.5931791519514228,"['B', 'Li', 'O', 'Rb']"
mp-866196,Li2PrIn,3,False,1.7219969683427596,-2.1240071416619224,-0.8682128617659177,False,0.9405377494149236,-0.98742213070275,"['In', 'Li', 'Pr']"
mp-764735,Li5Mn2Cu5O12,4,True,0.4486080980249419,0.354541830289021,-0.8682128617659177,False,0.7343950352720201,-0.5909935788276287,"['Cu', 'Li', 'Mn', 'O']"
mp-760302,Li4Fe3Co3(NiO8)2,5,True,0.5516782701446437,0.1798982936925572,-0.8682128617659177,False,0.4904914413793045,-0.4408638630458355,"['Co', 'Fe', 'Li', 'Ni', 'O']"
mp-26976,Li6Cr3P8O29,4,False,-0.6408881631999274,-0.0635151131139269,-0.6985324786721486,False,-0.7834538045134052,2.143103579125099,"['Cr', 'Li', 'O', 'P']"
mp-1096584,LiGa2Tc,3,False,4.208931048519414,-1.0677979028447284,-0.8682128617659177,False,-2.15550038975114,0.9790055312680244,"['Ga', 'Li', 'Tc']"
mp-774702,Li3BiO4,3,False,0.0981926143173475,0.4980447326265459,0.1695729449691982,True,1.4881706667162649,-0.7665615154189691,"['Bi', 'Li', 'O']"
mp-1177494,Li4CrFe3Cu2(PO4)6,6,True,-0.3703629004755621,-0.0251896645277325,-0.6258123144891053,False,-0.2744704129690055,0.1173749162765651,"['Cr', 'Cu', 'Fe', 'Li', 'O', 'P']"
mp-1175770,Li9Mn2Co5O16,4,True,0.2102899774246765,0.2310752647703568,-0.7786329947136214,False,0.2411451440202634,-0.3947951005493065,"['Co', 'Li', 'Mn', 'O']"
mp-1093815,Li2ScIn,3,False,3.909506072817628,-0.2410378920892824,-0.8682128617659177,False,-2.340485368967637,2.0656088352336908,"['In', 'Li', 'Sc']"
mp-1235716,LiCr4(HgO4)2,4,False,0.2384724537237832,0.0401854397885685,-0.8682128617659177,False,2.093027609747056,-0.7194495971991741,"['Cr', 'Hg', 'Li', 'O']"
mp-1101598,LiNiP2O7,4,True,-0.3326616892799232,0.0489305598432142,-0.8174306242079268,False,-0.3726497717408681,-0.518658300608793,"['Li', 'Ni', 'O', 'P']"
mp-1177526,Li3V3P8O29,4,False,-0.6013032117366315,-0.1029064721580369,-0.679709195950653,False,-0.8616946646553615,2.210268953668676,"['Li', 'O', 'P', 'V']"
mp-768218,Li2TmPCO7,5,False,-0.9003091134484807,-0.09091258303132,2.573130103413978,True,0.0220372349951275,-0.3818777924559224,"['C', 'Li', 'O', 'P', 'Tm']"
mp-770365,LiAlVO4,4,False,-0.8776986204008032,-0.1239864682436457,0.1906306461432453,True,-0.6918691766973043,0.3386093819824509,"['Al', 'Li', 'O', 'V']"
mp-1187087,Sr2LiCd,3,False,2.0014189794451456,1.6129552020012532,-0.8682128617659177,False,-0.126888568933201,-0.8414306385438868,"['Cd', 'Li', 'Sr']"
mp-755443,Li2MnCrO4,4,True,-0.3280598310580728,-0.0864441266763845,-0.0777704067632601,False,0.2232206868977435,-0.8041641723488416,"['Cr', 'Li', 'Mn', 'O']"
mp-1185333,LiAu3,2,False,1.757541579760962,-9.17868439425139,-0.8682128617659177,False,7.623133561964906,-0.8595725783431114,"['Au', 'Li']"
mp-1644567,Li4Co5SnO12,4,True,0.3551783449128886,0.225369224440918,-0.8682128617659177,False,0.6986279923713374,0.028247351010523,"['Co', 'Li', 'O', 'Sn']"
mp-7610,Li2CaSiO4,4,False,-1.1622310179778323,0.1064464864040465,2.6457148482968678,True,-0.5960522040367214,-0.9932448258371692,"['Ca', 'Li', 'O', 'Si']"
mp-1275546,Li2V3CoO8,4,True,-0.3361861575193309,-0.1620226273904125,-0.2994518011164127,False,0.200458327800486,-0.400757281091525,"['Co', 'Li', 'O', 'V']"
mp-772051,Li3CuSiCO7,5,False,-0.20101461393891,0.1663356014406561,-0.8682128617659177,False,-0.5265994466232815,-0.4728739432573912,"['C', 'Cu', 'Li', 'O', 'Si']"
mp-25861,LiCr2(PO3)5,4,False,-0.6364410439740077,-0.17459322064331,0.9459317927557734,True,-0.680970347227662,0.5370091365882326,"['Cr', 'Li', 'O', 'P']"
mp-764299,Li2VFe(P2O7)2,5,True,-0.7204586063909543,-0.1323899837235925,0.3632225441903395,True,-0.5815993342738247,1.1013820393559353,"['Fe', 'Li', 'O', 'P', 'V']"
mp-768812,LiBiB2O5,4,False,-0.4876427104927266,-0.0050470514867929,1.2539429909575115,True,1.1527549176104073,-0.125391774786659,"['B', 'Bi', 'Li', 'O']"
mp-1245342,LiLu(SO4)2,4,False,-0.4578479381555546,0.1053063669054416,3.030034822135748,True,0.0491410117593123,-0.300067324822143,"['Li', 'Lu', 'O', 'S']"
mp-756824,Li3V(FeO2)4,4,True,0.081779750661652,-0.0404664493457954,-0.739699945919161,False,0.5914973025215388,-0.8003441324982807,"['Fe', 'Li', 'O', 'V']"
mp-8424,Li8PrO6,3,False,-0.2631043860906208,0.5069542294110944,-0.8682128617659177,False,-0.4742710595615838,-0.7771092260051281,"['Li', 'O', 'Pr']"
mp-778265,Li4Mn3Fe(BO3)4,5,True,-0.5366631983424239,-0.1706016775664028,1.241145867092898,True,-0.4095464437654452,-0.4991316207339273,"['B', 'Fe', 'Li', 'Mn', 'O']"
mp-764043,Li3Mn3NiO8,4,True,0.8680184994500055,0.2477542112749869,-0.6115255783227896,False,0.4420878274360709,-0.4286833811633221,"['Li', 'Mn', 'Ni', 'O']"
mp-764607,LiV(TeO4)3,4,False,0.3722546461189555,0.2749711408271069,0.2587465541210314,True,0.7490099742798798,-0.6151928615376702,"['Li', 'O', 'Te', 'V']"
mp-768387,Li4TiCrO6,4,False,-0.6952455524497383,0.0286503804827446,-0.0378217132176395,False,-0.2019142139081963,0.0056111480267447,"['Cr', 'Li', 'O', 'Ti']"
mp-1222432,Li3MnAs2,3,True,1.6317901619671422,0.7974383004806868,-0.8682128617659177,False,-0.1792262397685093,-0.927509691706023,"['As', 'Li', 'Mn']"
mp-1236433,Sr2LiTa2(NO2)2,5,False,-0.3466356876002106,-0.2802555414145196,-0.8682128617659177,False,2.486096028535429,-0.8296346813496336,"['Li', 'N', 'O', 'Sr', 'Ta']"
mp-780583,Li2MnFe(BO3)2,5,True,-0.4885852890509557,-0.1495563146773187,1.2945010713538267,True,-0.3719740540494957,-0.5107626364978615,"['B', 'Fe', 'Li', 'Mn', 'O']"
mp-1210897,LiV4O8,3,False,-0.515670041814551,-0.3342942294726249,-0.8682128617659177,False,0.0135304142955883,-0.8074179426069177,"['Li', 'O', 'V']"
mp-34650,LiMn3O4,3,True,-0.0826412571633135,-0.2669697079492365,-0.8682128617659177,False,0.5935927656982496,-0.7506315498831628,"['Li', 'Mn', 'O']"
mp-26635,LiV2P3O10,4,False,-0.7162073633493278,-0.2060963126310135,0.9579841104695368,True,-0.3160655101561635,-0.1798171800324898,"['Li', 'O', 'P', 'V']"
mp-758389,LiNb(TeO4)3,4,False,0.1887812705825699,0.2092195307273171,0.2137196368196122,True,0.8045013684278216,-0.5849969327268358,"['Li', 'Nb', 'O', 'Te']"
mp-770493,Li5V2Fe5O12,4,True,-0.0620875203154275,-0.0424589721247593,-0.116568036257565,False,0.4251942578010934,-0.5736362099844385,"['Fe', 'Li', 'O', 'V']"
mp-1232990,KLiNi2H3(SeO5)2,6,True,0.7648989507349596,0.4996029313999718,-0.7271736606548564,False,-0.3904955823308883,-0.5047109647112238,"['H', 'K', 'Li', 'Ni', 'O', 'Se']"
mp-770958,Li4NbFe3O8,4,True,-0.2145566210323234,-0.0180880891080136,-0.3587654545841469,False,0.3915154172591379,-0.777834552501556,"['Fe', 'Li', 'Nb', 'O']"
mp-760097,Li2Mn2C2O7,4,True,-0.0507947424859755,-0.1538133906885925,0.7133491447401719,True,-0.6368155576629271,0.542290777694283,"['C', 'Li', 'Mn', 'O']"
mp-1207174,LiAl2Ge,3,False,2.2542671302151183,1.1160765706575642,-0.8682128617659177,False,-0.3725998853697863,-1.0376266173903803,"['Al', 'Ge', 'Li']"
mp-1235092,Sr2LiV2(Si2O7)2,5,False,-1.0911648358677004,-0.1926184569781928,-0.1179899389091895,False,-0.1462171119887993,-0.3958433857691433,"['Li', 'O', 'Si', 'Sr', 'V']"
mp-771290,LiMn2O4,3,True,-0.0734759148187536,-0.1396372218250059,-0.81506078645522,False,0.2495892404731264,-0.3970773134819398,"['Li', 'Mn', 'O']"
mp-775959,LiLa7(CuO7)2,4,False,-1.2714773251022906,-0.1739351318102629,-0.8486447728935723,False,2.042589694437892,2.512447840837654,"['Cu', 'La', 'Li', 'O']"
mp-26369,Li4Ni(PO4)2,4,True,-0.6368255428089513,0.1361218685641148,1.5228857210646345,True,-0.6973918239882259,0.7195737280892522,"['Li', 'Ni', 'O', 'P']"
mp-757088,Li4Fe7(OF7)2,4,True,-0.6464372555466882,0.2547949473999036,1.2148745228628968,True,-0.1616243706272014,-0.2587692958799844,"['F', 'Fe', 'Li', 'O']"
mp-1185418,LiZnPt2,3,False,1.5262732751006003,0.8306686378009636,-0.8682128617659177,False,7.074409479052335,-1.083321929299105,"['Li', 'Pt', 'Zn']"
mp-25454,Li2CoPCO7,5,True,-0.1885101125698549,0.0327126685892908,-0.3321555621037586,False,-0.6392560996712815,-0.4565015621748257,"['C', 'Co', 'Li', 'O', 'P']"
mp-850291,Li2Mn5(Si2O5)6,4,True,-1.0458939399594396,-0.2954102169385051,1.1612484800016571,True,-0.7261556964017777,2.740390424351243,"['Li', 'Mn', 'O', 'Si']"
mp-849671,Li5Co2(SiO5)2,4,True,-0.294714302598217,0.1761084409012172,-0.7061836691308867,False,-0.6123262408121424,0.0091534028062114,"['Co', 'Li', 'O', 'Si']"
mp-758825,LiFeSiO4,4,True,-0.5864789607654541,-0.0913629815603784,1.152107677241219,True,-0.8233431251908953,2.298501128054184,"['Fe', 'Li', 'O', 'Si']"
mp-772729,Li5V3P8O29,4,False,-0.7090908748283548,-0.0900348822697936,-0.2478570477574926,False,-0.8003538315088101,2.138602893946281,"['Li', 'O', 'P', 'V']"
mp-1177448,Li4Cr(TeO4)3,4,False,0.0929397531653235,0.3142643369306864,-0.8682128617659177,False,0.7012624062031387,-0.5840657847661461,"['Cr', 'Li', 'O', 'Te']"
mp-1280547,Li2CrO3,3,False,-0.2622647802737166,0.1003438510949851,-0.1374903181314576,False,-0.1242768036076047,-0.6254052259878979,"['Cr', 'Li', 'O']"
mp-982666,LiAl2Tc,3,False,1.823603245090426,-1.0134807982915226,-0.8682128617659177,False,0.6130943526904499,-1.074875057282192,"['Al', 'Li', 'Tc']"
mp-758342,Li2Co2(SiO3)3,4,True,-0.6482306017956789,-0.0628526500516176,0.936994118945567,True,-0.7326683731835517,1.3623371216874824,"['Co', 'Li', 'O', 'Si']"
mp-1031101,LiMg6BiO8,4,False,-0.6571594621487334,0.3650599856124292,2.265051195562163,True,0.595397882694958,-0.7320653885040301,"['Bi', 'Li', 'Mg', 'O']"
mp-759969,Li5MnO3F,4,True,-0.2441190424391863,0.4453834132227263,0.3600401906367046,True,-0.9231492229469715,0.0292482461712436,"['F', 'Li', 'Mn', 'O']"
mp-754935,Li2V3CrO8,4,False,-0.4890038361785993,-0.2545439101164161,0.1183167398606653,True,0.0120064586948551,-0.7969833371750202,"['Cr', 'Li', 'O', 'V']"
mp-753220,Li2Co(SiO3)2,4,True,-0.7386739336704086,-0.0142004224571727,1.2491356058020218,True,-0.5405827041463087,0.2284489892915025,"['Co', 'Li', 'O', 'Si']"
mp-1296374,Li2MnCoO4,4,True,0.123115990825736,0.1239268701742691,-0.8592751879557119,False,0.3490741664605933,-0.8077010787857372,"['Co', 'Li', 'Mn', 'O']"
mp-1263073,Li2Mn(SiO3)2,4,True,-0.9029090512650858,-0.1110223483729494,1.445629010326411,True,-0.5323582665425919,-0.5208685300237418,"['Li', 'Mn', 'O', 'Si']"
mp-1176954,Li6NbNi3(PO4)6,5,True,-0.537160402022826,0.0178796121576809,-0.8682128617659177,False,-0.4832203311471019,0.1560919422540225,"['Li', 'Nb', 'Ni', 'O', 'P']"
mp-1177667,Li3FePCO7,5,True,-0.3940910230003975,0.0180831711563069,1.669206274881728,True,-0.6382458877220131,0.3507284179367639,"['C', 'Fe', 'Li', 'O', 'P']"
mp-1281247,LiMn4O8,3,True,0.0513154441470359,-0.1917373237109966,-0.7471480074276665,False,0.1942002693697928,-0.8172338098422334,"['Li', 'Mn', 'O']"
mp-1235451,Sr2LiTa2(NO2)2,5,False,-0.4198886739448971,-0.2995744373896724,-0.8682128617659177,False,2.499408384730141,-0.8307204893998603,"['Li', 'N', 'O', 'Sr', 'Ta']"
mp-504691,LiMnP,3,True,1.619381037813832,0.371333842094671,-0.8682128617659177,False,-0.0497710120740941,-0.9959067150030306,"['Li', 'Mn', 'P']"
mp-1176762,LiMn(PO3)3,4,True,-0.6706694957593483,-0.1271783946435231,1.6702219196328874,True,-0.690564183184473,1.9244479697849517,"['Li', 'Mn', 'O', 'P']"
mp-26021,LiCoPO4,4,True,-0.4657449026814227,-0.0037121283438838,1.1121589836955994,True,-0.4297385307952085,0.2507727464833911,"['Co', 'Li', 'O', 'P']"
mp-770575,LiCrPO4F,5,False,-0.8019640731488105,-0.0757236795886169,0.9326607013406184,True,-0.6949599640904958,1.2079421324849464,"['Cr', 'F', 'Li', 'O', 'P']"
mp-771876,Li5NiO4,3,True,0.1633354006471709,0.5629312011437758,0.4171194256518871,True,-0.6764964140017952,0.9660783481052724,"['Li', 'Ni', 'O']"
mp-1223325,Li2Ni2H24C6(N4O5)3,6,True,1.2109920251837505,0.3050633566576669,2.042557285408082,True,-1.2379040188570904,0.3658641736855979,"['C', 'H', 'Li', 'N', 'Ni', 'O']"
mp-1176836,Li8MnFe7(BO3)8,5,True,-0.4177351711851677,-0.1183223473117682,1.3653253653347055,True,-0.3052273702716193,0.1765254291028132,"['B', 'Fe', 'Li', 'Mn', 'O']"
mp-1306478,Li2TiFeO4,4,True,-0.6560098960086738,-0.0840925232185866,0.0445132212763835,True,0.0996197463691727,-0.3449045746826233,"['Fe', 'Li', 'O', 'Ti']"