material_id,formula_pretty,n_elements,contains_transition_metal,formation_energy_per_atom,energy_per_atom,band_gap,is_semiconductor,density,volume,elements
mp-1235522,Ba3LiTi3O8,4,False,-1.1398855834813322,-0.133993226780691,-0.8682128617659177,False,0.8561854311374596,-0.5798918081995647,"['Ba', 'Li', 'O', 'Ti']"
mp-780147,LiMnSiO4,4,True,-0.6525492441829607,-0.1374705113986728,-0.1565167298031851,False,-0.3074441581523907,-0.3407901583424746,"['Li', 'Mn', 'O', 'Si']"
mp-781314,LiCuCO3,4,False,3.515297840165175,1.0111991951050645,-0.6418595015574307,False,-0.3218648066751559,-0.8553482021551896,"['C', 'Cu', 'Li', 'O']"
mp-780424,LiMn(PO3)3,4,True,-0.6550343005844222,-0.1230549489765533,2.0896154922118213,True,-0.6286804182943324,0.8008628916316988,"['Li', 'Mn', 'O', 'P']"
mp-1177020,Li6MnV3(PO4)6,5,True,-0.7298290107804285,-0.0980128189967573,-0.6383385997534099,False,-0.606301766710226,1.5242602346750729,"['Li', 'Mn', 'O', 'P', 'V']"
mp-27761,Li3ThF7,3,False,-1.7403863167233111,-1.6243464751788057,2.979049455627525,True,0.3854777270807993,0.4723994949183557,"['F', 'Li', 'Th']"
mp-1290535,Li2Fe2(CO3)3,4,True,0.1414631316359801,-0.1099767962320052,1.5528810960488886,True,-0.5769443278262453,-0.2233484132478684,"['C', 'Fe', 'Li', 'O']"
mp-1235795,LiFe8(OF)8,4,True,-0.0721302880953169,0.0740586079542751,0.1070769379478297,True,0.2651326345398467,-0.3897347872240513,"['F', 'Fe', 'Li', 'O']"
mp-1175672,Li9Mn2Co5O16,4,True,0.1438028005437043,0.2135407051852885,-0.1961945847484958,False,0.3259777127347056,-0.4200302477498234,"['Co', 'Li', 'Mn', 'O']"
mp-758947,Li7Mn7P6(O8F)3,5,True,-0.6984354765106492,-0.09298309020817,1.139039714776296,True,-0.2548751164799601,1.7788199870673302,"['F', 'Li', 'Mn', 'O', 'P']"
mp-1185486,LiTi2O4,3,False,-1.3552858122814069,-0.372693040160216,-0.8682128617659177,False,0.0792781822275844,-0.4118476934078365,"['Li', 'O', 'Ti']"
mp-780217,Li7CuO4,3,False,0.1789517981128131,0.6851978692457252,0.6544417491729019,True,-0.6609658458615028,-0.6266828032876017,"['Cu', 'Li', 'O']"
mp-849679,Li7Mn4(P2O7)4,4,True,-0.7218827848089293,-0.0830863885520977,-0.7657004515488527,False,-0.5361185564067548,1.8971296858484263,"['Li', 'Mn', 'O', 'P']"
mp-771900,Li3AlCoO4,4,True,-0.3287953355502048,0.2786332656216036,0.4570004095474305,True,-0.5241323734702026,0.969354595434738,"['Al', 'Co', 'Li', 'O']"
mp-1275879,Li3TiV2O6,4,False,-0.7532089671339857,-0.1463586463947088,-0.7734870613077448,False,0.0917938841009009,-0.5805523365520552,"['Li', 'O', 'Ti', 'V']"
mp-1236002,Ba2LiTmCu3O7,5,False,-0.1517108815801441,0.31405651685079,-0.8682128617659177,False,1.4617943838066016,-0.6296732823380514,"['Ba', 'Cu', 'Li', 'O', 'Tm']"
mp-758011,Li2Fe4Si4O13,4,True,-0.6321547720765264,-0.1887383890118821,1.120081012754646,True,-0.1037674068269933,0.24921252134433,"['Fe', 'Li', 'O', 'Si']"
mp-26367,Li3Mn2(PO4)3,4,True,-0.6272709667481139,-0.0726650860267729,-0.0529886748349596,False,-0.3723069202850885,0.0098045824261088,"['Li', 'Mn', 'O', 'P']"
mp-1147686,Li10Zn(PS4)4,4,False,0.93877397041436,0.7733968356892535,0.7895902107272366,True,-1.1601279379997895,2.4325284356848216,"['Li', 'P', 'S', 'Zn']"
mp-778949,Li2CuPO4,4,False,-0.3485630274631345,0.2454590511475753,-0.0192692690964531,False,-0.2539154977805918,-0.2571800387369631,"['Cu', 'Li', 'O', 'P']"
mp-774242,LiTaWO6,4,False,-0.7157504891175461,-0.4689685354286773,1.3513771774187784,True,1.1492040349263666,-0.4178284619875393,"['Li', 'O', 'Ta', 'W']"
mp-1097579,LiAlGa2,3,False,3.443958483667981,0.125527599837721,-0.4251886213099992,False,-2.2680689406017605,1.0692367670703486,"['Al', 'Ga', 'Li']"
mp-1377576,LiV2OF5,4,False,-1.1372508036014544,0.123567666760317,-0.2693210068320044,False,-0.2728964111872718,-0.2921084820397958,"['F', 'Li', 'O', 'V']"
mp-774857,Li4V3Sn3(TeO8)2,5,False,-0.1361504876055654,0.1311738867233448,-0.259096849670328,False,0.8522072232123866,0.7621172734199297,"['Li', 'O', 'Sn', 'Te', 'V']"
mp-850782,Li2Mn3(BO3)3,4,True,-0.5208593424573535,-0.2349360355344352,-0.8682128617659177,False,-0.4150989222137869,-0.150035168719588,"['B', 'Li', 'Mn', 'O']"
mp-1232335,Na2Li2Cu(BrO)2,5,False,0.6203282612681178,0.9360307753517008,-0.8682128617659177,False,-0.4570667734236507,-0.7453578012703359,"['Br', 'Cu', 'Li', 'Na', 'O']"
mp-1275142,LiMn2O3F,4,True,-0.3713008855459571,-0.092419377278022,-0.4653404438058519,False,0.0776277909965156,-0.3262870315818574,"['F', 'Li', 'Mn', 'O']"
mp-756567,Li2TiFe2O5,4,True,-0.3928499985602708,-0.1140415751287125,0.2710020007850261,True,0.4632111509212084,-0.6910748608522205,"['Fe', 'Li', 'O', 'Ti']"
mp-782668,Li4VP2(O4F)2,5,False,-0.8779368001109118,0.0960744025803311,0.2051882209098696,True,-0.6906138977226031,0.925701009078964,"['F', 'Li', 'O', 'P', 'V']"
mp-755800,Li2MnFe(BO3)2,5,True,-0.4883015505573092,-0.149481484766397,1.3043866802651165,True,-0.369889551943838,-0.5114714169881399,"['B', 'Fe', 'Li', 'Mn', 'O']"
mp-757133,Li2VCu(PO4)2,5,False,-0.5142402476973705,0.0059581951731319,-0.8682128617659177,False,-0.1367544863185193,-0.3772599843999394,"['Cu', 'Li', 'O', 'P', 'V']"
mp-643708,LiH2IO,4,False,0.6941060045783102,0.8414309222224499,1.8681372268089016,True,-0.3775857629005152,-0.7810305606938298,"['H', 'I', 'Li', 'O']"
mp-1026841,NaLiMg14,3,False,2.2188008470666096,0.9575015071997508,-0.8682128617659177,False,-1.4031313380404005,-0.1643231304778142,"['Li', 'Mg', 'Na']"
mp-752626,LiVO2F,4,False,-0.8038099782992397,0.0035429139968047,0.7803816983167209,True,-0.4996916847249874,-0.5428363950190996,"['F', 'Li', 'O', 'V']"
mp-1661734,Li2CoSn(PO4)2,5,True,-0.4212271935290956,0.0727696058563331,0.6170660223302199,True,-0.0424502627128302,0.7463572678695064,"['Co', 'Li', 'O', 'P', 'Sn']"
mp-758170,LiCuPO4,4,False,-0.2025124609774083,0.1914767173922748,-0.8682128617659177,False,-0.3079826953417753,-0.2735492046298364,"['Cu', 'Li', 'O', 'P']"
mp-852069,LiSnPHO5,5,False,2.519762233756792,0.9308633237414436,-0.8682128617659177,False,-0.1074318781408433,-0.6033159889647478,"['H', 'Li', 'O', 'P', 'Sn']"
mp-777353,Li3MnB8O15,4,True,-0.7575608106478546,-0.192835958104911,0.06611259965105,True,-1.0979323925110571,2.419542967350216,"['B', 'Li', 'Mn', 'O']"
mp-26184,LiFe2P5O16,4,True,-0.5744070475986104,-0.1250511894356451,0.8822847216830907,True,-0.697150985449306,0.6367727937388497,"['Fe', 'Li', 'O', 'P']"
mp-755653,LiFeF5,3,True,-0.5294963064411846,0.5722650503775746,-0.5092840067060332,False,-0.32255502348991,-0.7751718296554237,"['F', 'Fe', 'Li']"
mp-977399,LiMgPd2,3,False,1.4929820428685578,0.9242946902387934,-0.8682128617659177,False,2.196518277204187,-1.0717431806036812,"['Li', 'Mg', 'Pd']"
mp-695286,Li11Sc7Ti(PO4)12,5,False,-0.5579163103405175,0.0117302631526038,0.8377317719322126,True,-0.6773979379239768,1.5265578223393073,"['Li', 'O', 'P', 'Sc', 'Ti']"
mp-6782,Li2ZrTeO6,4,False,-0.5750627706534166,0.0757251516152764,1.013573733183018,True,0.7582840806737356,-0.9154148973470118,"['Li', 'O', 'Te', 'Zr']"
mp-1176223,Li9Mn2Co5O16,4,True,0.187808663480392,0.2251463028652303,-0.7021887997763239,False,0.2660471350843582,-0.4023626664758672,"['Co', 'Li', 'Mn', 'O']"
mp-861665,LiTmIn2,3,False,1.6614813061959055,-4.019323601373792,-0.8682128617659177,False,2.398839534708748,-0.9730877263733436,"['In', 'Li', 'Tm']"
mp-1174436,Li4MnCo2O7,4,True,0.2721583348675646,0.248903711784172,-0.8682128617659177,False,0.1620674800074583,-0.4873733553198023,"['Co', 'Li', 'Mn', 'O']"
mp-771341,Li3BePCO7,5,False,-0.610766716015048,0.0665222922128862,2.8235880990499926,True,-0.9746540074125392,-0.4653665350405065,"['Be', 'C', 'Li', 'O', 'P']"
mp-726294,Li2V2P2O11,4,False,-0.5955517678216838,-0.1073498307329709,0.5188870297181029,True,-0.9274870486213284,0.1967221069706601,"['Li', 'O', 'P', 'V']"
mp-25831,LiMnPO4,4,True,-0.6692440114714299,-0.141465345033894,1.4507749437322863,True,-0.5218419428346328,-0.7317385358995123,"['Li', 'Mn', 'O', 'P']"
mp-772963,Li6V3P8O29,4,False,-0.7536237622558385,-0.082477022584198,-0.1730378844220517,False,-0.7721321035904365,2.109377836104403,"['Li', 'O', 'P', 'V']"
mp-780426,Li6Co2C4SO16,5,True,-0.0507949878854428,0.0652080416461276,-0.8682128617659177,False,-0.6205623711312319,0.4456344561483766,"['C', 'Co', 'Li', 'O', 'S']"
mp-766384,Li3Fe4(PO4)6,4,True,-0.3510489869200117,-0.050445644146409,-0.8682128617659177,False,-0.481195657504804,0.0496113323643531,"['Fe', 'Li', 'O', 'P']"
mp-776421,LiV2OF5,4,False,-1.1629785784800202,0.1167825207703306,-0.5079298137044875,False,-0.2892890388084627,-0.2851222960459649,"['F', 'Li', 'O', 'V']"
mp-1175616,Li9Mn2Co5O16,4,True,0.1602210416514047,0.2178706623362795,-0.3811096391096631,False,0.3317556742449764,-0.4216941973367559,"['Co', 'Li', 'Mn', 'O']"
mp-778002,Li3MnV(PO4)3,5,True,-0.6964000707505078,-0.0897632367908478,-0.5759103023821183,False,-0.5313546863926079,0.097197453250927,"['Li', 'Mn', 'O', 'P', 'V']"
mp-771023,Li6Mn3Sb3O16,4,True,-0.0816962035354315,0.1649764758407316,-0.667182910686349,False,0.3633910350029711,-0.3137223201574227,"['Li', 'Mn', 'O', 'Sb']"
mp-1175641,Li9Mn2Co5O16,4,True,0.2454906909143109,0.2403586941032925,-0.8682128617659177,False,0.2272529802614577,-0.3905135024107162,"['Co', 'Li', 'Mn', 'O']"
mp-803497,Li4CrFe3O8,4,True,1.1197226538136902,0.3419281089885458,-0.8682128617659177,False,0.2551887501553921,-0.3670730386395741,"['Cr', 'Fe', 'Li', 'O']"
mp-780315,Li4Cr2Fe3O10,4,True,-0.0459342715678188,-0.0284203003102996,-0.2257159921822082,False,0.2355144355594217,-0.7013111635547917,"['Cr', 'Fe', 'Li', 'O']"
mp-760008,Li3Fe(PO4)2,4,True,-0.6409888104099696,0.0306469079375299,0.7918246291797885,True,-0.445251668671333,0.4195335351220093,"['Fe', 'Li', 'O', 'P']"
mp-696136,Li10Sn(PO6)2,4,False,-0.4744075515980919,0.3307477058090051,1.4282953399066165,True,-0.7345065212711668,0.3601343791338043,"['Li', 'O', 'P', 'Sn']"
mp-560297,LiTaSiO5,4,False,-1.3428998898505458,-0.4090772971231236,1.699878746366755,True,0.92904952432658,-0.1334920348354386,"['Li', 'O', 'Si', 'Ta']"
mp-1185441,LiSm2Ga,3,False,1.7842274732657877,-3.3073098967439982,-0.8682128617659177,False,1.7145753041662095,-0.9515098933623944,"['Ga', 'Li', 'Sm']"
mp-768139,Li8Sb2S,3,False,1.2600594410119033,1.1412744768928067,0.0961079746353036,True,-0.8303685865728831,0.0273621044655287,"['Li', 'S', 'Sb']"
mp-865612,LiCd3,2,False,1.9597045228054948,-2.4926002557089366,-0.8682128617659177,False,2.363522200405468,-0.7849508831634778,"['Cd', 'Li']"
mp-744690,NaLi3Ti2Fe2(PO4)6,6,True,-0.8276989072822041,-0.1382381514193155,0.6469936876643964,True,-0.5655393597234332,2.827614277107868,"['Fe', 'Li', 'Na', 'O', 'P', 'Ti']"
mp-770854,Li10Fe3Sb7O24,4,True,0.0087206468027227,0.2739445264029272,-0.1483238621438292,False,0.662822746173837,0.2518858054807041,"['Fe', 'Li', 'O', 'Sb']"
mp-775699,Li6V3Sb3O16,4,False,-0.3002758528427927,0.1097590057433604,-0.8682128617659177,False,0.2796397879641494,-0.2997525204917903,"['Li', 'O', 'Sb', 'V']"
mp-863414,Li2MnP3O10,4,True,-0.6100901977681605,-0.0494138906656123,-0.8682128617659177,False,-0.5960464670451615,-0.1590956098429289,"['Li', 'Mn', 'O', 'P']"
mp-756729,Li3Mn3SbO8,4,True,-0.1051335729868001,0.0230445296107864,-0.8682128617659177,False,0.4160339668136417,-0.760644886557648,"['Li', 'Mn', 'O', 'Sb']"
mp-781504,Li2CrP2O7,4,False,-0.6944649757399283,-0.0694450463249204,-0.8018574046901428,False,-0.5963008161430994,0.370717205536366,"['Cr', 'Li', 'O', 'P']"
mp-770533,Li6MnO4,3,True,-0.084542922486681,0.4506301130660491,1.1910407260356797,True,-0.7171611238172895,-0.088212564538925,"['Li', 'Mn', 'O']"
mp-758843,Li2Ti2VO6,4,False,-1.0478415852035845,-0.2774967141590764,-0.6852613872569935,False,-0.0367431758298484,-0.2394591782141921,"['Li', 'O', 'Ti', 'V']"
mp-1222566,Li9Mn3N4,3,True,1.7353629215687831,0.5815966643661162,-0.8682128617659177,False,-0.8119588908485603,-0.7026178745001321,"['Li', 'Mn', 'N']"
mp-850091,Li9Nb10Cr6(PO4)24,5,False,-0.8563313794059638,-0.2500539605465891,-0.8473582895421032,False,-0.4168373811110017,4.255370379497283,"['Cr', 'Li', 'Nb', 'O', 'P']"
mp-1147633,LiCu2BiO4,4,False,0.6451074477212178,0.483405335376232,-0.8682128617659177,False,1.889801753999586,-0.6444933502733916,"['Bi', 'Cu', 'Li', 'O']"
mp-1174497,Li4MnCo2O7,4,True,0.1875290972756512,0.2265845747895168,-0.7993521476372812,False,0.1933336849411004,-0.4960595300892855,"['Co', 'Li', 'Mn', 'O']"
mp-758345,Li4V7(PO4)6,4,False,-0.6197908463392608,-0.1990494011587761,0.6207223434343953,True,-0.3513057714352565,0.1804613675484443,"['Li', 'O', 'P', 'V']"
mp-755106,Li3Fe2(CuO4)2,4,True,0.609643178367463,0.3368293156645009,-0.8682128617659177,False,0.4864791915245525,-0.8230561113251325,"['Cu', 'Fe', 'Li', 'O']"
mp-753327,LiSiBiO4,4,False,-0.60652937145224,0.0931880380814361,1.4716295159561013,True,1.2604390829479295,-0.1896418078190579,"['Bi', 'Li', 'O', 'Si']"
mp-1031367,KLiMg6O7,4,False,-0.4028482309938829,0.5145074862232824,-0.8682128617659177,False,-0.7416494417358593,-0.6866121428298778,"['K', 'Li', 'Mg', 'O']"
mp-1210922,LiMnO7,3,True,1.933569603041136,0.5751719827567537,-0.8682128617659177,False,-1.1041455592597629,-0.4441045413014597,"['Li', 'Mn', 'O']"
mp-777860,Li2FeF6,3,True,-0.7177117834705488,0.5831298894736243,-0.7473511363778977,False,-0.4910021195502013,-0.3620144934207566,"['F', 'Fe', 'Li']"
mp-1176858,Li8(CoO2)5,3,True,0.3718155953975418,0.3700275519148369,-0.8682128617659177,False,-0.2459793761805498,-0.5149393983872614,"['Co', 'Li', 'O']"
mp-1175627,Li9Mn2Co5O16,4,True,0.1432357105660929,0.2133911474289061,-0.0834580173697552,False,0.3106223581971427,-0.4155750377752523,"['Co', 'Li', 'Mn', 'O']"
mp-1173977,Li3Co2O5,3,True,0.370612515608609,0.3385665838655707,-0.8682128617659177,False,0.2970919712642454,-0.7381416264393345,"['Co', 'Li', 'O']"
mp-1175388,Li9Mn2Co5O16,4,True,0.2070973462484159,0.2302332771237237,0.1730261371231416,True,0.3480036688063459,-0.4263372570348988,"['Co', 'Li', 'Mn', 'O']"
mp-1178127,Li2Fe3NiO8,4,True,0.5277033678380881,0.1320240824381822,-0.8682128617659177,False,0.2693002061501299,0.4619718090937375,"['Fe', 'Li', 'Ni', 'O']"
mp-1176598,LiMnSnO4,4,True,-0.0806471397949792,0.0720385321535224,-0.3535518115281924,False,0.8183346491182207,-0.2949015990738156,"['Li', 'Mn', 'O', 'Sn']"
mp-584450,Li9Co3P8O29,4,True,-0.5470622227096902,0.0598281091556022,0.1571143693549708,True,-0.6675168726693598,2.075292497164809,"['Co', 'Li', 'O', 'P']"
mp-770509,LiAlVO4,4,False,-0.8821029030487042,-0.1251480028453832,0.2181884737247154,True,-0.6926063148914678,0.3392492309020281,"['Al', 'Li', 'O', 'V']"
mp-1174209,Li4Mn3CoO8,4,True,-0.0222346987105522,0.0488066969890577,-0.5391439623901323,False,0.2795809265272093,-0.801570424506268,"['Co', 'Li', 'Mn', 'O']"
mp-1185318,LiGe2Ir,3,False,1.8222971884463408,0.5690860121956857,-0.8682128617659177,False,4.260168519770003,-1.0749144947412972,"['Ge', 'Ir', 'Li']"
mp-1235349,Ba2LiLaIrO6,5,False,-0.5599361598782971,0.093092912344699,-0.8682128617659177,False,2.131394997235516,-0.7482016980537585,"['Ba', 'Ir', 'La', 'Li', 'O']"
mp-758091,LiVF4,3,False,-1.282766521706886,0.2986622975415628,1.1963220787417106,True,-0.0942040318602876,-0.8824551817597702,"['F', 'Li', 'V']"
mp-770850,Li2TiCo2O5,4,True,-0.2455052700535469,0.0023799361387567,-0.3423120096153569,False,0.5935301316960687,-0.7012808642229622,"['Co', 'Li', 'O', 'Ti']"
mp-6071,Sr3LiIrO6,4,False,-0.5908521391395187,0.1824468253344782,-0.8682128617659177,False,1.5219805268296749,-0.3499779599531389,"['Ir', 'Li', 'O', 'Sr']"
mp-976600,LiHf2Tc,3,False,1.91688459964751,-6.56251606832922,-0.8682128617659177,False,4.859598524199837,-1.037045442141607,"['Hf', 'Li', 'Tc']"
mp-753695,Li2Fe3NiO8,4,True,0.618794423108071,0.1560473845428527,-0.8682128617659177,False,0.5184412649386592,-0.8480952476145999,"['Fe', 'Li', 'Ni', 'O']"
mp-753889,Li4CuNi3(PO4)4,5,True,-0.3751104786956021,0.0937022325710764,-0.7986750511365079,False,0.0252429863338696,-0.4188058944885338,"['Cu', 'Li', 'Ni', 'O', 'P']"
mp-559263,K2Li4UO6,4,False,-0.5537940317177305,0.2571636943915903,0.587612324546585,True,0.143221203948948,-0.7059738451561514,"['K', 'Li', 'O', 'U']"
mp-752920,Li4MnSb2WO12,5,True,-0.1277861884625806,0.0921891214140135,-0.0721505058068417,False,1.235636732483974,-0.0352688412546473,"['Li', 'Mn', 'O', 'Sb', 'W']"
mp-752635,Li(CoO2)3,3,True,0.6674757349428444,0.1770934651845497,-0.8682128617659177,False,0.710261000053224,-0.9593942300164514,"['Co', 'Li', 'O']"
mp-554108,LiRe(OF2)2,4,False,-0.7033501918680897,0.1959940688412912,1.2605108270150118,True,0.6406776390777463,-0.6247240805983079,"['F', 'Li', 'O', 'Re']"
mp-780844,LiV8F33,3,False,-1.082579662782054,0.301720229257314,-0.2576749470187043,False,-0.6388159831000269,2.334495385102961,"['F', 'Li', 'V']"
mp-773159,Li3Co2(PO4)3,4,True,-0.3358594374770398,0.0630477222447612,-0.3367598183090165,False,-0.4241580504178184,0.0654291890296075,"['Co', 'Li', 'O', 'P']"
mp-775154,LiMnF4,3,True,-0.9578718355847058,0.3805690665077246,0.4292394530157285,True,-0.5143618447345474,0.0922592725054442,"['F', 'Li', 'Mn']"
mp-756821,LiAgF3,3,False,-0.0173209844847135,-0.3877898640776959,-0.8082898214474877,False,0.6262455046446513,-0.5349938205081276,"['Ag', 'F', 'Li']"
mp-770699,KLiMnO2,4,True,0.1653502888631242,0.3000124927965475,0.5730547497799606,True,-0.4427627030831291,-0.4123506944496652,"['K', 'Li', 'Mn', 'O']"
mp-756645,Li5Ti3O8,3,False,-1.0835557000707563,-0.0674494392165779,-0.8682128617659177,False,-0.2008464801336194,-0.8124459135958296,"['Li', 'O', 'Ti']"
mp-1222362,LiZr4(NCl)4,4,False,-0.012034682353124,-1.91294918962252,-0.8682128617659177,False,0.2785697465773757,-0.5825647313632536,"['Cl', 'Li', 'N', 'Zr']"
mp-774458,Li4MnV3(P2O7)4,5,True,-0.7892281870387452,-0.1591377879606936,-0.7370592695661454,False,-0.5904845464855863,1.876240777767709,"['Li', 'Mn', 'O', 'P', 'V']"
mp-549207,Li4CO4,3,False,0.0389865431795944,0.367291035122252,2.1053918406798373,True,-1.233683321738209,-0.977131867200986,"['C', 'Li', 'O']"
mp-655001,Li3BH6,3,False,1.9779419641429723,1.1093727370318804,-0.1986998418013567,False,-2.0314713796342216,-0.7319717081991248,"['B', 'H', 'Li']"
mp-10970,LiErO2,3,False,-1.4827148244286308,-0.0398944953558319,1.915195433612639,True,2.1024499749703542,-0.6643735295522805,"['Er', 'Li', 'O']"
mp-1178040,Li2Cr3(CuO6)2,4,False,0.3863508737164964,0.1081945989758171,-0.718168277194572,False,-0.4723438605560756,1.8424237526926976,"['Cr', 'Cu', 'Li', 'O']"
mp-1236517,LiMn6(OF2)4,4,True,-0.5919275791073715,-0.0220295074055087,-0.3313430463028307,False,-0.0646431000403377,-0.5129883116380791,"['F', 'Li', 'Mn', 'O']"
mp-18189,LiTmSn,3,False,1.4880200934161494,0.9252464464025362,-0.8682128617659177,False,2.400826527113555,0.3016672190062143,"['Li', 'Sn', 'Tm']"
mp-26181,LiFeP2O7,4,True,-0.5881551096159892,-0.0894015515526734,0.8445704465900225,True,-0.3282513078586478,-0.8899175871717715,"['Fe', 'Li', 'O', 'P']"
mp-780336,Li3Cr3(PO4)4,4,False,-0.6536474801223926,-0.1459156270629501,0.4776518528210137,True,-0.3923987598265224,0.449300222696648,"['Cr', 'Li', 'O', 'P']"
mp-1235505,LiP4(Br3O)4,4,False,0.7661545479746971,0.8702853624984005,-0.5633840171178136,False,-0.7995257995263629,0.9267571236568656,"['Br', 'Li', 'O', 'P']"
mp-756990,Li2CrP3O10,4,False,-0.701048184732558,-0.0823065867057318,0.925009510881881,True,-0.705861695981632,-0.1038505904695305,"['Cr', 'Li', 'O', 'P']"
mp-753488,Li8Ni(O2F)2,4,True,-0.1836794704363012,0.6262328650988814,1.2896259765482598,True,-0.7514998311434788,-0.8435025036873669,"['F', 'Li', 'Ni', 'O']"
mp-37906,LiMgN,3,False,1.2785943381545677,0.358991067871762,0.7881005984255357,True,-0.8598857400711679,-1.1501237698069968,"['Li', 'Mg', 'N']"
mp-1222861,Li5Co4NiO10,4,True,0.4166736563556845,0.2945530479466804,-0.8682128617659177,False,0.489345773806203,-0.7148306265801159,"['Co', 'Li', 'Ni', 'O']"
mp-1013922,LiCr2P2O9,4,False,-0.5982631289479419,-0.2060823257812473,-0.4127977553458492,False,-0.4054527738787556,0.6947852915654104,"['Cr', 'Li', 'O', 'P']"
mp-1177009,Li6V3P8O29,4,False,-0.7514468100157876,-0.0819028983611863,0.1571143693549708,True,-0.7860110210538459,2.13634088743312,"['Li', 'O', 'P', 'V']"