material_id,formula_pretty,n_elements,contains_transition_metal,formation_energy_per_atom,energy_per_atom,band_gap,is_semiconductor,density,volume,elements
mp-705334,Li2V(PO3)5,4,False,-0.7339875814367823,-0.0954462285546404,-0.8682128617659177,False,-0.9252366393990584,0.6239887949673267,"['Li', 'O', 'P', 'V']"
mp-768749,Li4AlCr3O8,4,False,-0.6495872884249329,-0.081921619874544,1.3021522618125645,True,0.1061207165704779,-0.407120215937553,"['Al', 'Cr', 'Li', 'O']"
mp-1273137,LiV3O4,3,False,-0.3439097236884508,-0.3273749325333084,-0.7891279904756056,False,0.6148131901322738,-0.7785683768956579,"['Li', 'O', 'V']"
mp-771705,LiMnNbO4,4,True,-0.75448822487816,-0.3581727747662224,0.9692239123823724,True,0.3384062579141624,-0.2522076181832023,"['Li', 'Mn', 'Nb', 'O']"
mp-774880,Li6V3Sb3O16,4,False,-0.2937011056766321,0.111492953571348,-0.4361575846225254,False,0.3031176144673193,-0.307586702235862,"['Li', 'O', 'Sb', 'V']"
mp-2426,LiAg,2,False,1.9731780248740012,-1.3852890198617274,-0.8682128617659177,False,1.6752076490556254,-1.150126296401678,"['Ag', 'Li']"
mp-780617,LiMn2(BO3)2,4,True,-0.4933636291691975,-0.2604863248984652,-0.8682128617659177,False,-0.4280884087719893,0.2074585098572803,"['B', 'Li', 'Mn', 'O']"
mp-1178001,Li2CrO2,3,False,-0.1267681283499767,0.1493571617408343,-0.1816370099818716,False,-0.4664792437585662,-0.6232640615360532,"['Cr', 'Li', 'O']"
mp-1222907,LiPH22(C2O)4,5,False,1.7579906879251013,0.5867950764978457,0.5111004199592101,True,-1.9550859422598197,1.311658601065493,"['C', 'H', 'Li', 'O', 'P']"
mp-865604,Li5Mg,2,False,2.1561683819437145,1.3286976584173702,-0.8682128617659177,False,-1.971110189368687,-0.886276057074478,"['Li', 'Mg']"
mp-764935,Li(CoO2)2,3,True,0.5923778225294402,0.2041367745382452,-0.8682128617659177,False,0.499071747725549,-0.8354477842637597,"['Co', 'Li', 'O']"
mp-974887,LiNdSn2,3,False,1.5537602318944692,0.8825075477023199,-0.8682128617659177,False,1.8722718371796343,-0.6690749983390616,"['Li', 'Nd', 'Sn']"
mp-865897,Li2AcIn,3,False,1.7967902149123447,-4.950160120399867,-0.8682128617659177,False,1.5046133727971152,-0.9538469925290864,"['Ac', 'In', 'Li']"
mp-1173999,Li5Mn(CoO4)2,4,True,0.1740260245625164,0.2688825016228697,-0.8682128617659177,False,0.1451085410565745,-0.8326354565826193,"['Co', 'Li', 'Mn', 'O']"
mp-757,Li3As,2,False,1.2462034826733286,0.2812023431239251,-0.4372409390237632,False,-0.8282192470454467,-0.8726820372476588,"['As', 'Li']"
mp-758673,LiNb2O4,3,False,-0.8173505763573742,-0.4136846020853363,-0.8682128617659177,False,0.9506678387291532,-0.7620051733550718,"['Li', 'Nb', 'O']"
mp-674982,Li19Mn5N9,3,True,1.695616521071566,0.6044464854688969,-0.8682128617659177,False,-1.0480472663380902,-0.0686500469431998,"['Li', 'Mn', 'N']"
mp-7971,Ba4Li(SbO4)3,4,False,-0.6417599282394563,0.1893672037198231,0.1165562889586542,True,1.7383224349934836,-0.3971102521977821,"['Ba', 'Li', 'O', 'Sb']"
mp-759400,LiCoSiO4,4,True,-0.3531215819876443,0.0255817932433809,0.1387650541840166,True,-0.517627266897344,0.288566144170982,"['Co', 'Li', 'O', 'Si']"
mp-1174205,Li4Mn3CoO8,4,True,-0.0410297725724623,0.0438499014384297,-0.8500666755451954,False,0.2332731052614513,-0.7941983685864158,"['Co', 'Li', 'Mn', 'O']"
mp-756784,LiSbS2,3,False,1.2111912469110069,0.8198403230406277,-0.8633377669603505,False,0.1364535506442138,-1.0043180595660033,"['Li', 'S', 'Sb']"
mp-25898,LiNi2(PO4)3,4,True,0.0193699826840454,0.1077750645832364,-0.8070033380960185,False,-0.6253680853920791,1.549655397824865,"['Li', 'Ni', 'O', 'P']"
mp-1210963,Li2Zn2(MoO4)3,4,False,-0.0719864398782144,0.0194040338799107,1.256109699759986,True,0.2959348223484446,1.6188184425556775,"['Li', 'Mo', 'O', 'Zn']"
mp-1188784,Li2CdSnS4,4,False,0.9577103659058352,0.8722561150888422,0.430187388116811,True,-0.2946564944136302,-0.1566602641420095,"['Cd', 'Li', 'S', 'Sn']"
mp-1100724,Li9Mn2Co5O16,4,True,0.2396097806825452,0.2388077308091532,-0.8682128617659177,False,0.2711511253443611,-0.4038969986016575,"['Co', 'Li', 'Mn', 'O']"
mp-754863,Li2MnFe(BO3)2,5,True,-0.4906300671522341,-0.1500955808206124,1.2494064444023305,True,-0.3400317711990596,-0.521474269837001,"['B', 'Fe', 'Li', 'Mn', 'O']"
mp-1304492,Li3Ti3VO8,4,False,-1.0393577192924546,-0.2456847939833597,-0.8682128617659177,False,0.0223793432537913,0.5023676492334102,"['Li', 'O', 'Ti', 'V']"
mp-771874,Li6V3P8O29,4,False,-0.7462877236137612,-0.0805423005412071,-0.7930551501800909,False,-0.7752691849381892,2.1154345942429784,"['Li', 'O', 'P', 'V']"
mp-1113081,Cs2LiScF6,4,False,-1.709522251293489,-1.3133062960348048,3.618770229558064,True,0.311289068934005,-0.7471130479405089,"['Cs', 'F', 'Li', 'Sc']"
mp-1302394,Li4V3O8,3,False,-0.5117201686065804,-0.0367079192948703,0.0993580378390151,True,-0.2645436565295634,-0.3560564747670587,"['Li', 'O', 'V']"
mp-1318721,Li5MnO3F,4,True,-0.2435720194580633,0.4455276787413852,0.8860764620874206,True,-0.8706966570268186,-0.011326485384671,"['F', 'Li', 'Mn', 'O']"
mp-1214380,BaLiGd2(MoO4)4,5,False,-0.6896109726787131,-0.5113047203898556,-0.8416706789356075,False,1.1580250990988483,0.6838547302414799,"['Ba', 'Gd', 'Li', 'Mo', 'O']"
mp-849403,Li2Fe5F17,3,True,-0.7515230920957119,0.389072619434765,1.101799407233769,True,-0.5634993706755046,2.8252056083293984,"['F', 'Fe', 'Li']"
mp-27968,Li6Ge2O7,3,False,-0.3634912204819301,0.372530929752303,1.8598766494994672,True,-0.4091970424236977,0.5885203345246424,"['Ge', 'Li', 'O']"
mp-753931,Li7Mn(OF)3,4,True,-0.3051658167487358,0.5648280710636575,1.051626556526473,True,-0.8665077880422297,-0.4236593503119009,"['F', 'Li', 'Mn', 'O']"
mp-1222836,Li2Cr2FeSbO8,5,True,-0.2346163042019952,-0.0838378307792051,0.4121766211962432,True,0.6275715985834125,-0.3719245796384756,"['Cr', 'Fe', 'Li', 'O', 'Sb']"
mp-1222371,LiZn2CrO4,4,False,-0.0064978702325122,0.3085087733937539,0.0848681727224681,True,1.133204736475971,-1.014649488903964,"['Cr', 'Li', 'O', 'Zn']"
mp-758730,LiFe2(BO3)2,4,True,-0.321824559803957,-0.1787410627368797,0.1469579218433718,True,-0.3446473429022065,0.1624836694935697,"['B', 'Fe', 'Li', 'O']"
mp-753880,Li3Mn2(FeO4)2,4,True,0.1177259076792309,0.0112351743317694,-0.8682128617659177,False,0.4206547686220287,-0.8325813097549071,"['Fe', 'Li', 'Mn', 'O']"
mp-10556,Sr2LiReN4,4,False,1.0686992515387064,-0.0325356148368101,0.3572640949835343,True,1.3476699844948614,-0.5320926407117366,"['Li', 'N', 'Re', 'Sr']"
mp-627993,LiV2O5,3,False,-0.451268697426974,-0.2056842334112001,-0.643958500709827,False,-0.4351197401055364,-0.0698683440528278,"['Li', 'O', 'V']"
mp-767907,Li4Ti4V4NiO18,5,True,-0.8408782049055091,-0.2778540283905312,-0.0515667721833364,False,0.0364919082511841,0.7018154183851213,"['Li', 'Ni', 'O', 'Ti', 'V']"
mp-881807,Li2VFeO4,4,True,-0.2464996307099552,-0.0191949537631909,-0.3383848499108729,False,0.2025139698775544,-0.8011994951947502,"['Fe', 'Li', 'O', 'V']"
mp-1209544,Rb3Li2Ga(MoO4)4,5,False,-0.2263982693375237,0.0022233189644568,1.8840489945770715,True,-0.205489050962155,1.4907147440089634,"['Ga', 'Li', 'Mo', 'O', 'Rb']"
mp-1177992,Li2Mn(CoO3)2,4,True,0.3147039110572812,0.119987598416272,0.2235375360808239,True,0.2497234139774226,-0.5807219234910201,"['Co', 'Li', 'Mn', 'O']"
mp-757246,Li2Ti3VO8,4,False,-1.1518755761362718,-0.3436776525265381,-0.7197255991463511,False,-0.0888938060983642,-0.3462803705396322,"['Li', 'O', 'Ti', 'V']"
mp-780327,LiMn3(BO3)3,4,True,-0.4632731955133954,-0.2874024183892841,-0.8552126089510719,False,-0.4242300433810084,-0.1666302350694415,"['B', 'Li', 'Mn', 'O']"
mp-1235366,Sr2LiO12,3,False,1.0643270129728732,0.5685382026081102,-0.8390300025825926,False,-0.4695506572636488,-0.6496028201788236,"['Li', 'O', 'Sr']"
mp-755339,LiMn2P2HO8,5,True,-0.5048002043059721,-0.1288989786187157,1.5857202763363902,True,-0.4509436285407263,-0.2787125280399901,"['H', 'Li', 'Mn', 'O', 'P']"
mp-1222678,Li2BrO,3,False,0.4698318994665803,0.9080791434323868,-0.8486447728935718,False,-0.57091869555155,-1.0564338928026094,"['Br', 'Li', 'O']"
mp-1211171,LiEr(SO4)2,4,False,-0.4650820435826011,0.10228553693255,3.031727563387681,True,-0.0581045175998967,-0.2791985734366894,"['Er', 'Li', 'O', 'S']"
mp-1211318,Li3GeO4,3,False,-0.1221356868350174,0.4133533537449738,-0.8682128617659177,False,-0.5913449394189614,-0.1845385587535881,"['Ge', 'Li', 'O']"
mp-769583,Li3VCr3O8,4,False,-0.4625657557717376,-0.1955584454174839,0.1567081114545069,True,0.1330274660464682,-0.374254495992198,"['Cr', 'Li', 'O', 'V']"
mp-5990,CsLi(B3O5)2,4,False,-0.9536571960916252,-0.2017388172393543,2.653704587005992,True,-0.9556632565220649,0.268182603659993,"['B', 'Cs', 'Li', 'O']"
mp-758722,Li2FeCu(PO4)2,5,True,-0.3823331400917883,0.0534685094281314,-0.8682128617659177,False,-0.0121609459444255,-0.4076168835911408,"['Cu', 'Fe', 'Li', 'O', 'P']"
mp-1176038,Li9Mn2Co5O16,4,True,0.1749187735056286,0.2217468722620618,-0.8382174867816641,False,0.2941173630693098,-0.4107318433643298,"['Co', 'Li', 'Mn', 'O']"
mp-758486,Li2CuP2O7,4,False,-0.4268699627119019,0.1354134986964287,-0.5358938991864215,False,-0.4031918035579391,-0.47229179651928,"['Cu', 'Li', 'O', 'P']"
mp-757991,Li2CrCo3O8,4,True,0.3565030220308243,0.0897109664559679,-0.8682128617659177,False,0.6181885869294326,0.2828369982393974,"['Co', 'Cr', 'Li', 'O']"
mp-559934,LiZnPO4,4,False,-0.6294152892553908,0.1965850676530585,2.0463490258124124,True,-0.3688188883247524,-0.2349614263616656,"['Li', 'O', 'P', 'Zn']"
mp-774656,Li5Ti6FeO16,4,True,-1.166727876406993,-0.2668831503416222,0.6736712897948604,True,-0.1703293752494386,-0.3688545656271592,"['Fe', 'Li', 'O', 'Ti']"
mp-1078799,LiNbF6,3,False,-1.4089433272034204,-0.4967096520099455,2.3576779968679387,True,-0.2103125977637502,-0.9397295281141784,"['F', 'Li', 'Nb']"
mp-1173970,Li3Co2O5,3,True,0.2957708542077398,0.3188287090926892,-0.8682128617659177,False,0.3163803128077528,-0.7415549497611562,"['Co', 'Li', 'O']"
mp-759256,Li6MnV3(PO4)6,5,True,-0.7486704679077141,-0.1029818471337069,-0.1802151073302486,False,-0.5779205760048796,0.1227570178291033,"['Li', 'Mn', 'O', 'P', 'V']"
mp-776077,LiFeF3,3,True,-0.8861235845396478,0.3695936463043712,1.4229462775505075,True,-0.4073614780664847,0.2245048805916787,"['F', 'Fe', 'Li']"
mp-755602,Li2CrO3,3,False,-0.1975774860748183,0.117403730424168,-0.8682128617659177,False,-0.2198009047395816,-1.0785713823635537,"['Cr', 'Li', 'O']"
mp-1176924,Li7Fe3Sb(PO4)6,5,True,-0.5407253439866124,0.0222272430173551,-0.8682128617659177,False,-0.4416823810700582,0.1703628878831777,"['Fe', 'Li', 'O', 'P', 'Sb']"
mp-756982,LiCrPO4,4,False,-0.5700520536396476,-0.1356587195616459,0.7157189824928775,True,-0.3593399241008502,0.5992527760017219,"['Cr', 'Li', 'O', 'P']"
mp-767672,LiVF5,3,False,-1.1801534180232869,0.3752229474316841,0.4345885153718369,True,-0.8477260092904689,-0.0573700800037921,"['F', 'Li', 'V']"
mp-1176626,LiMnF4,3,True,-1.0007706031319854,0.3692554413701979,0.7525530321349414,True,-0.6893055466496915,-0.7520476200218764,"['F', 'Li', 'Mn']"
mp-758230,Li2Mn3(P2O7)2,4,True,-0.6491418298630068,-0.1744791645699897,-0.8682128617659177,False,-0.7431409852075356,0.6750368460331839,"['Li', 'Mn', 'O', 'P']"
mp-1186151,NaLi3,2,False,2.2192287623028766,1.346120864312303,-0.8682128617659177,False,-2.0214695323933487,-0.9499163747946492,"['Li', 'Na']"
mp-861689,Li15Cr15SiO32,4,False,-0.4479763138538101,-0.1323222047284104,0.2415483030013915,True,0.216320576985083,0.4381675869473065,"['Cr', 'Li', 'O', 'Si']"
mp-1235144,LiAl4Cd2O8,4,False,-0.5856625208089702,0.2547553831747922,-0.8682128617659177,False,0.6094970564451337,-0.7570485253647912,"['Al', 'Cd', 'Li', 'O']"
mp-849590,LiFe2(BO3)2,4,True,-0.3237740076903133,-0.1792551875910981,0.4099422027436917,True,-0.3455105650995823,0.1630424866454265,"['B', 'Fe', 'Li', 'O']"
mp-29929,NaLi5N2,3,False,2.0065629451192124,1.0682789869684377,1.064762228641473,True,-1.1837716161213128,-1.030687063716538,"['Li', 'N', 'Na']"
mp-862290,LiFeRh2,3,True,2.0378531781768534,0.2549698905488164,-0.8682128617659177,False,3.3422536741214035,-1.090888161373207,"['Fe', 'Li', 'Rh']"
mp-1222315,LiLaTi2O6,4,False,-1.5500155483369102,-0.3881876079753007,0.3215133997427082,True,0.6732064962632671,-0.8978404779001116,"['La', 'Li', 'O', 'Ti']"
mp-1197966,KLi(BH4)2,4,False,1.6499273846378215,0.9206417224715668,3.284284558176092,True,-1.8234690218964316,0.1790942044210889,"['B', 'H', 'K', 'Li']"
mp-780863,Li4V2Fe3Cu3O16,5,True,0.275637913220358,0.1329537703558319,-0.8682128617659177,False,0.3495122003040979,-0.4034129713651578,"['Cu', 'Fe', 'Li', 'O', 'V']"
mp-1235321,LiSc2Al2(CO)2,5,False,0.4626621317477945,0.0353563397337361,-0.8063939512453228,False,-0.4859319975934086,-0.910177869848937,"['Al', 'C', 'Li', 'O', 'Sc']"
mp-629443,Li2EuGeS4,4,False,0.5507852737275106,0.4043735118246055,-0.7313716589596498,False,-0.0679664306797234,-0.7561838909850247,"['Eu', 'Ge', 'Li', 'S']"
mp-1185267,LiNpRu2,3,False,2.278611635872823,-7.744187714218722,-0.8682128617659177,False,5.34196372115561,-1.0558736057441638,"['Li', 'Np', 'Ru']"
mp-780734,Li2MnSiO4,4,True,-0.7256686675072743,-0.0379716947416235,1.126919687412455,True,-0.4537040688196956,0.2686725025597598,"['Li', 'Mn', 'O', 'Si']"
mp-849506,Li3Fe2(P2O7)2,4,True,-0.5987345896102583,-0.0522275956321754,-0.16701172556517,False,-0.4927482045308918,1.8191497042639229,"['Fe', 'Li', 'O', 'P']"
mp-861896,LiHg2Pd,3,False,1.826372573012063,1.4612957571647645,-0.8682128617659177,False,5.56086309008682,-1.0336028343743835,"['Hg', 'Li', 'Pd']"
mp-1101989,SrLiAs,3,False,0.8517142102317553,-1.354733833934247,-0.1692461440177216,False,0.1926490016306873,-0.4331744373693789,"['As', 'Li', 'Sr']"
mp-778303,Li3MnV(PO4)3,5,True,-0.7068858841853886,-0.092528644033225,-0.4413035180284018,False,-0.5887310461768437,0.1370944041786494,"['Li', 'Mn', 'O', 'P', 'V']"
mp-1980704,Li2Fe(CoO3)2,4,True,0.464500628750209,0.1777460187308018,-0.8682128617659177,False,0.3414908715553826,-0.5998446456056474,"['Co', 'Fe', 'Li', 'O']"
mp-1235477,Rb2LiNd2(WO4)4,5,False,-0.6791378555757497,-0.3163176647432802,0.5245069306745198,True,2.014958233214493,-0.2044690815026869,"['Li', 'Nd', 'O', 'Rb', 'W']"
mp-753250,Li2CoSn(PO4)2,5,True,-0.4167607181515206,0.0739475424497837,0.2326106291911849,True,-0.0279006254182614,0.7347202691910517,"['Co', 'Li', 'O', 'P', 'Sn']"
mp-780526,Li2MnCSO7,5,True,-0.1595348101173531,0.0221841588653888,2.00064501201022,True,-0.8420027927519326,0.492915088997904,"['C', 'Li', 'Mn', 'O', 'S']"
mp-778397,Li2Sn(BO3)2,4,False,-0.5670356248858675,0.0473057645040889,1.2789955614861208,True,-0.2118833538913928,0.1595226844334836,"['B', 'Li', 'O', 'Sn']"
mp-758425,Li3V(PO4)2,4,False,-0.7489788281681373,-0.0105557894700638,0.649024977166716,True,-0.7171898421181555,0.6359849994202228,"['Li', 'O', 'P', 'V']"
mp-1176393,Na2LiCu(PO3)4,5,False,-0.5362406456430137,0.0956000221862962,0.6304048233954522,True,-0.7618025608343332,0.3494620416805811,"['Cu', 'Li', 'Na', 'O', 'P']"
mp-1275701,Li2Ni3BiO8,4,True,0.6731258547792189,0.376790359452024,-0.3336451744054604,False,1.256827760457455,-0.3403896077694391,"['Bi', 'Li', 'Ni', 'O']"
mp-753094,Li3NiOF3,4,True,-0.6797023183111296,0.5544678771424487,1.2997147144097814,True,-0.1376615510023207,-0.8255188169947688,"['F', 'Li', 'Ni', 'O']"
mp-5446,Li2PrO3,3,False,-0.5298051795158132,0.2646881709728468,-0.8682128617659177,False,0.1641895597089843,-0.9947954723354232,"['Li', 'O', 'Pr']"
mp-1177451,Li4Cr3Cu(PO4)4,5,False,-0.5558291317358234,-0.0743565323408155,-0.8682128617659177,False,-0.221853895531379,-0.3584712298453425,"['Cr', 'Cu', 'Li', 'O', 'P']"
mp-8425,Li8TbO6,3,False,-0.3350520143304917,0.4910282291102293,-0.8682128617659177,False,-0.1960567497863281,-0.8075736378441069,"['Li', 'O', 'Tb']"
mp-759844,Li6MnF8,3,True,-1.1905888621114276,0.5298324043874574,2.2006593183386296,True,-0.6661875932997501,-0.8054486028970296,"['F', 'Li', 'Mn']"
mp-754166,Li2TiFe2O5,4,True,-0.3575660284576892,-0.1047361886589415,-0.2115646753160485,False,0.5606140697069518,-0.7084336238552427,"['Fe', 'Li', 'O', 'Ti']"
mp-1181180,LiUO3,3,False,-1.2833789881134845,-0.4271013297341921,-0.6031972913632797,False,1.4061468069780094,-0.7580467508457015,"['Li', 'O', 'U']"
mp-771365,Li24Ti5Cr7O36,4,False,-0.6254197589100174,0.0399827825823055,-0.0548168353870472,False,-0.1841780417665832,0.6189565333666451,"['Cr', 'Li', 'O', 'Ti']"
mp-860886,Li7Cu(SiO4)2,4,False,-0.5197022486296785,0.3072577247473624,-0.1018750421907862,False,-0.7979823645526821,-0.1271297022330347,"['Cu', 'Li', 'O', 'Si']"
mp-764926,Li5Co2Cu2(PO4)4,5,True,-0.3408387685904265,0.119798297211903,-0.8682128617659177,False,-0.1351637594238898,-0.3468576132371379,"['Co', 'Cu', 'Li', 'O', 'P']"
mp-1311636,LiV3Zn2O8,4,False,-0.3752460036199083,-0.0371388251558589,-0.1728347554718198,False,0.5628734961458832,-0.363906448757901,"['Li', 'O', 'V', 'Zn']"
mp-1177387,Li4V3P8O29,4,False,-0.6619009001133496,-0.097769376496694,-0.0740463760090067,False,-0.8144041443314557,2.140319988405173,"['Li', 'O', 'P', 'V']"
mp-25903,Li4Cr(PO4)2,4,False,-0.715819195927225,0.0403746121516396,0.097868425537314,True,-0.7960138696145602,0.7821112954191128,"['Cr', 'Li', 'O', 'P']"
mp-758385,LiPWO5,4,False,-0.5306746428114318,-0.2340895824629841,0.8329920964268003,True,0.9895426137785897,-0.1313908294259409,"['Li', 'O', 'P', 'W']"
mp-1187090,Sr2LiRh,3,False,2.127206316976145,-2.0213706390899397,-0.7839143474196525,False,0.4370436389438467,-0.9277182566523566,"['Li', 'Rh', 'Sr']"
mp-1232348,K2Li2Cu(IO)2,5,False,0.861428867820804,1.0204603867606798,-0.8682128617659177,False,-0.0958933463645405,-0.6513202191923693,"['Cu', 'I', 'K', 'Li', 'O']"
mp-1176000,Li9Mn2Co5O16,4,True,0.2377488285140596,0.2383169447927506,-0.8388268736323599,False,0.2527002176322579,-0.398323588203138,"['Co', 'Li', 'Mn', 'O']"
mp-763178,Li4Ti3Ni3(TeO8)2,5,True,-0.3445443717654549,0.0581170302058946,0.1138479029555621,True,0.5585104042992921,0.557746367155134,"['Li', 'Ni', 'O', 'Te', 'Ti']"
mp-1176797,LiBi(BO3)2,4,False,-0.2832426286058854,0.0468148020532202,0.0554821845889097,True,0.9281787059967342,-0.9268518436348816,"['B', 'Bi', 'Li', 'O']"
mp-760282,Li2VOF4,4,False,-1.1585841036719435,0.3081717515484871,0.6400873033565093,True,-0.512197389419598,-0.7342932650541508,"['F', 'Li', 'O', 'V']"
mp-1100755,Li9Mn2Co5O16,4,True,0.2114844665991394,0.2313902855395622,-0.8682128617659177,False,0.2713478200584299,-0.4039560151082655,"['Co', 'Li', 'Mn', 'O']"
mp-1173979,Li5Mn2CoO8,4,True,-0.0556961381044576,0.1715111712628163,-0.0427645176732846,False,0.1271474275052443,-0.8347343580971706,"['Co', 'Li', 'Mn', 'O']"
mp-777269,LiV3OF11,4,False,-1.1067086692648438,0.2465824436071253,0.1233949636164645,True,-0.5539361001926779,0.0244452989793578,"['F', 'Li', 'O', 'V']"
mp-803041,Li4MnV(PO4)3,5,True,5.7386340294599165,1.649766278212855,-0.8682128617659177,False,-0.6185415113022023,0.1823353078616539,"['Li', 'Mn', 'O', 'P', 'V']"
mp-1237871,Li3BiF6,3,False,-0.9237005816812764,-1.1542357795828038,2.071537015641176,True,0.133120626494163,-0.8207312945690333,"['Bi', 'F', 'Li']"
mp-554093,Li9Fe3P8O29,4,True,-0.6859804511838,-0.0005522060428196,0.8569613125541724,True,-0.7060334629116691,2.1131053724536706,"['Fe', 'Li', 'O', 'P']"
mp-759022,Li5Fe5O12,3,True,0.2891847155115599,0.1475300711069454,-0.8352382621782626,False,0.0216649382882894,0.0444899045272188,"['Fe', 'Li', 'O']"
mp-1034014,KLiMg14O15,4,False,-0.8217142450131664,0.3852775480076039,0.4846259467789781,True,-0.3169080302922775,-0.3216211554349283,"['K', 'Li', 'Mg', 'O']"
mp-1236396,LiAg4(PO3)4,4,False,0.0408488229772318,0.2463766234342904,-0.8682128617659177,False,0.0140367596800794,-0.2790880651371222,"['Ag', 'Li', 'O', 'P']"
mp-1174819,Li4MnCo2O7,4,True,0.1655401313576692,0.2207854590623873,-0.8682128617659177,False,0.267787145912407,-0.5159562389413355,"['Co', 'Li', 'Mn', 'O']"
mp-1218428,Sr3LiBiO6,4,False,-0.6078845310483447,0.3084791100225307,0.5691952997255533,True,1.2339219080532149,-0.2528904609207749,"['Bi', 'Li', 'O', 'Sr']"
mp-505431,K2LiInAs2,4,False,1.56566856535431,1.164830058653879,-0.0666660241505787,False,-0.1702647643929425,0.6810522235869382,"['As', 'In', 'K', 'Li']"