material_id,formula_pretty,n_elements,contains_transition_metal,formation_energy_per_atom,energy_per_atom,band_gap,is_semiconductor,density,volume,elements
mp-1222324,LiZnGe,3,False,1.897431226705672,1.2855806938953862,-0.8682128617659177,False,0.7023789676828829,-0.8036423236072302,"['Ge', 'Li', 'Zn']"
mp-778046,LiFeP2H5O9,5,True,0.0256943043787514,0.2121838524957599,1.6399557060483252,True,-0.9538005443667944,-0.1087716360078623,"['Fe', 'H', 'Li', 'O', 'P']"
mp-770608,Li3Mn3O8,3,True,-0.0035148025034692,0.0291326076934493,-0.8682128617659177,False,-0.0520599715766786,0.3998382583678692,"['Li', 'Mn', 'O']"
mp-756218,LiVCrO4,4,False,-0.5349461951845037,-0.2784555746180759,-0.8682128617659177,False,0.2553287946565947,-0.8345903277560358,"['Cr', 'Li', 'O', 'V']"
mp-1100672,Li9Mn2Co5O16,4,True,0.1821233407460898,0.2236469215571108,-0.8682128617659177,False,0.2914180086494529,-0.4099343182314399,"['Co', 'Li', 'Mn', 'O']"
mp-1211777,Li3Nd2Sb3,3,False,2.086847423124921,-3.1014465982873234,-0.8682128617659177,False,0.5677112937744758,-0.5347862509350139,"['Li', 'Nd', 'Sb']"
mp-1222598,Li3AsO4,3,False,-0.318253486810848,0.3599234609451052,1.9436334866451148,True,-0.4147863681508786,-0.2593816837417323,"['As', 'Li', 'O']"
mp-583967,Li2Co(PO4)2,4,True,-0.3247936976567824,0.0834689582848404,-0.80266992049107,False,-0.8824960649074334,0.834734393906482,"['Co', 'Li', 'O', 'P']"
mp-774245,Li5Mn5(NiO6)2,4,True,-0.0011716784498351,0.0116587425984251,-0.4991275591944356,False,0.5416596090707159,-0.5874698676967312,"['Li', 'Mn', 'Ni', 'O']"
mp-850358,LiCuSbO4,4,False,0.2563187115814522,0.3658073819308606,-0.5271593543264463,False,0.9671562802263892,-0.7651989198059543,"['Cu', 'Li', 'O', 'Sb']"
mp-783910,LiFeBO3,4,True,-0.3940100896447194,-0.107882443132331,1.324361027037927,True,-0.3047618404347319,1.593242435422248,"['B', 'Fe', 'Li', 'O']"
mp-760955,Li3V3P8O29,4,False,-0.6045639223860898,-0.1037664142980822,-0.0540720292361968,False,-0.8435934192902678,2.172790731643458,"['Li', 'O', 'P', 'V']"
mp-1279201,Li3Cr(CoO3)2,4,True,0.0743384957702978,0.1237149151198299,-0.0836611463199864,False,0.3915314332500473,-0.6040167424334324,"['Co', 'Cr', 'Li', 'O']"
mp-1280725,Li2VO2F,4,False,-0.7476327079002175,0.1465842451643813,0.0117417506389596,True,-0.1404799935902742,-0.9244144322350144,"['F', 'Li', 'O', 'V']"
mp-758134,Li2AgF5,3,False,-0.1661113786021497,-0.01960348756074,-0.8046335003433123,False,-0.2144474729959042,-0.6321132502667186,"['Ag', 'F', 'Li']"
mp-757242,Li5AuO4,3,False,0.1853864678230842,0.6414650714349824,0.4580837639486671,True,0.7527798835295129,-0.6565677577743572,"['Au', 'Li', 'O']"
mp-777892,Li4V2Fe3Sb3O16,5,True,0.0124690672973299,0.0626224295687769,-0.5003463328958268,False,0.6612374144135418,-0.3087685970775017,"['Fe', 'Li', 'O', 'Sb', 'V']"
mp-761245,K2Li2CoO4,4,True,0.320747208648619,0.5592817520931455,0.0005696583762022,True,-0.6777495352638786,0.2684135973184887,"['Co', 'K', 'Li', 'O']"
mp-782005,Li6TeO6,3,False,-0.1107556875289665,0.5211549268554673,1.2385051907398814,True,-0.3134866442188933,-0.85059827453872,"['Li', 'O', 'Te']"
mp-1176941,Li7V3P8O29,4,False,-0.7827775790791579,-0.0716846453620074,-0.8334778112762516,False,-0.780775236396464,2.151885515355976,"['Li', 'O', 'P', 'V']"
mp-1175359,Li7Mn5O12,3,True,-0.1673176625981508,0.0614432690446911,-0.2546280127652248,False,0.073757798935265,0.041840445401592,"['Li', 'Mn', 'O']"
mp-761188,LiV3(CoO6)2,4,True,0.1621109130791087,-0.0756057885256015,-0.7191162122956545,False,-0.2512619319851195,1.4309205626053605,"['Co', 'Li', 'O', 'V']"
mp-1174189,Li4Mn3CoO8,4,True,-0.0223304538682952,0.0487814436304736,-0.5862698788439492,False,0.2622593038891019,-0.798841719606758,"['Co', 'Li', 'Mn', 'O']"
mp-1174175,Li4Mn3CoO8,4,True,-0.0226116683757756,0.0487072793664918,-0.6816727758028953,False,0.2726284150571136,-0.8004792660392147,"['Co', 'Li', 'Mn', 'O']"
mp-753752,LiMn2(PO4)2,4,True,-0.5641093957436919,-0.1868038838978857,-0.6709746510906791,False,-0.6321066337211596,-0.7138525984688315,"['Li', 'Mn', 'O', 'P']"
mp-1210972,Li12(WO4)7,3,False,-0.26981727578842,-0.0890574598631522,-0.8682128617659177,False,0.7672720453238185,0.5420977078078711,"['Li', 'O', 'W']"
mp-1096624,LiSn2Ir,3,False,4.138746739359315,1.2689960351010885,-0.8682128617659177,False,-1.974463755662768,1.3814689947401289,"['Ir', 'Li', 'Sn']"
mp-1174403,Li7Co5O12,3,True,0.2940430325073216,0.3057407473275457,-0.6414532436569661,False,0.329585316465657,-0.6332566525931234,"['Co', 'Li', 'O']"
mp-758517,Li11Ni13O24,3,True,0.5679407149558462,0.3895761763579934,-0.8682128617659177,False,0.7890777944211058,-0.0482245787690763,"['Li', 'Ni', 'O']"
mp-25809,Li6Fe9(PO4)8,4,True,-0.4526270538082915,-0.1070153905983089,1.0760020305543092,True,-0.2238708200560125,0.5924655186824788,"['Fe', 'Li', 'O', 'P']"
mp-868646,Li4V5Sn3O16,4,False,-0.409008715577389,-0.0639045066799971,0.0527737985858175,True,0.6174590085725468,-0.3202378373839402,"['Li', 'O', 'Sn', 'V']"
mp-1093671,NaLi2Hg,3,False,2.885760517023581,-1.885959051908502,-0.8682128617659177,False,-2.2827947819466137,2.127902101139304,"['Hg', 'Li', 'Na']"
mp-1185253,LiTl3,2,False,2.082449848241046,-9.65755393977414,-0.8682128617659177,False,4.07617892899401,-0.9360675087945498,"['Li', 'Tl']"
mp-763610,LiCrSiO4,4,False,-0.8715598370654706,-0.215582948930245,0.8837066243347145,True,-0.1246311706876579,-0.4254210769501718,"['Cr', 'Li', 'O', 'Si']"
mp-753273,LiCuF4,3,False,-0.1549683291472826,0.253267203129413,-0.8682128617659177,False,-0.0218803756728893,-0.4824168813487837,"['Cu', 'F', 'Li']"
mp-1177167,Li5Cr2P2(CO7)2,5,False,-0.4683366167096213,-0.0634724418161524,-0.1833974608838819,False,-0.7255359990538545,-0.4311601577086845,"['C', 'Cr', 'Li', 'O', 'P']"
mp-1040044,LiHfMg30O31,4,False,-1.07186057094543,0.2697245940018465,-0.5401596071412935,False,-0.0082173508409753,0.5712775575116125,"['Hf', 'Li', 'Mg', 'O']"
mp-752548,LiV2O4,3,False,-0.525454174093302,-0.2523615432222515,-0.2553728189160754,False,-0.1744310284234547,-0.7632028581459862,"['Li', 'O', 'V']"
mp-568989,Li7NiN4,3,True,1.77734951641351,0.4309349805388923,-0.8682128617659177,False,-0.8814324706128128,1.3368111841409178,"['Li', 'N', 'Ni']"
mp-556157,LiTl3(MoO4)2,4,False,0.1801297046887677,0.1293391359734632,1.713759224632606,True,1.4334803477624345,0.2915442022884765,"['Li', 'Mo', 'O', 'Tl']"
mp-1175763,Li9Mn2Co5O16,4,True,0.2219672380485132,0.23415489052384,-0.8682128617659177,False,0.2842834795630809,-0.4078189986558782,"['Co', 'Li', 'Mn', 'O']"
mp-768549,Li2MnV(PO4)3,5,True,-0.683966168407251,-0.1333781642181135,-0.2570655601680084,False,-0.5740323714781873,0.1036339103271403,"['Li', 'Mn', 'O', 'P', 'V']"
mp-1191817,Li2In2SiSe6,4,False,1.0653220529884042,0.8770740375435319,0.3613266739881744,True,0.3209053576415849,0.4517200913942011,"['In', 'Li', 'Se', 'Si']"
mp-774231,LiFeB2O5,4,True,-0.5323815635829919,-0.1644984242429656,1.0305011457023483,True,-0.8965427999962761,0.0701310305802471,"['B', 'Fe', 'Li', 'O']"
mp-759179,LiNiOF,4,True,-0.1890095144680029,0.4334321887540351,0.7294640414585746,True,0.5311742446743437,-0.9195917252823514,"['F', 'Li', 'Ni', 'O']"
mp-768493,LiMn3(PO4)3,4,True,-0.5715924414621696,-0.2156962543638043,-0.685803064457612,False,-0.2327445642810333,1.336176425787462,"['Li', 'Mn', 'O', 'P']"
mp-19251,RbLiCrO4,4,False,-0.1281110568987407,0.1647204074281946,1.1468263245351882,True,-0.4628445623016228,-0.5846958027701206,"['Cr', 'Li', 'O', 'Rb']"
mp-849603,Li3Fe9O5F11,4,True,-0.2708327442622542,0.143538775218737,-0.0678847978519705,False,0.102035610447741,-0.24002046925199,"['F', 'Fe', 'Li', 'O']"
mp-1235591,LiYbNbO3,4,False,0.3748923199196416,-2.3063142451239904,-0.8682128617659177,False,1.8366826357959545,-1.0012710488099836,"['Li', 'Nb', 'O', 'Yb']"
mp-776590,Li9P8W3O29,4,False,-0.6714152651589373,-0.0764383422205746,1.6197782303252832,True,-0.1151055026485112,2.315006581198962,"['Li', 'O', 'P', 'W']"
mp-753060,LiV2O2F3,4,False,-0.9671128219577536,-0.0115997554633656,0.3250343015467291,True,-0.1245440923988513,-0.7058813855320171,"['F', 'Li', 'O', 'V']"
mp-850412,Li7TiCr3(PO4)6,5,False,-0.7429897954587501,-0.0828862532500017,-0.8682128617659177,False,-0.6426842117922016,0.1751939551083907,"['Cr', 'Li', 'O', 'P', 'Ti']"
mp-1210753,Li2Al,2,False,1.9720992914001083,0.9460877800418598,-0.8682128617659177,False,-1.5852819212196785,-0.9543455364505912,"['Al', 'Li']"
mp-26923,LiCrPO5,4,False,-0.5035573591119871,-0.1070677568631683,-0.8682128617659177,False,-0.249026729933009,-0.2734481762087891,"['Cr', 'Li', 'O', 'P']"
mp-850894,Li2V3CuO8,4,False,-0.2629862351080583,-0.0798342439091745,-0.8682128617659177,False,0.1661499794731543,-0.8085522838794059,"['Cu', 'Li', 'O', 'V']"
mp-1236260,K2LiNd4Nb2O12,5,False,-1.2399085066018845,-0.2088955393647624,-0.8682128617659177,False,1.0853614784288168,-0.3100272770789799,"['K', 'Li', 'Nb', 'Nd', 'O']"
mp-25943,Li2CuP2O7,4,False,-0.4820355947316733,0.1208647525008977,-0.8682128617659177,False,-0.4374686934283632,0.3189090293535735,"['Cu', 'Li', 'O', 'P']"
mp-567097,LiCu2Ge,3,False,1.9706365958811036,0.9899725628689124,-0.8682128617659177,False,2.125236943795075,-1.095082369637343,"['Cu', 'Ge', 'Li']"
mp-1285671,Li2TiCrO4,4,False,-0.7484794632387572,-0.1513859061021179,-0.8682128617659177,False,0.1251142329431886,-0.3722989608794655,"['Cr', 'Li', 'O', 'Ti']"
mp-769626,Li4Mn2Nb3Fe3O16,5,True,-0.3996700849300934,-0.2333516424432524,-0.7237204685009123,False,0.4155093645826813,-0.3168640534741327,"['Fe', 'Li', 'Mn', 'Nb', 'O']"
mp-776412,LiMnP2O7,4,True,-0.6247872419814647,-0.1173152520666301,0.0589353767428538,True,-0.581888566124679,0.3320582643659382,"['Li', 'Mn', 'O', 'P']"
mp-773163,Li2Fe3SnO8,4,True,0.1244198631511966,0.0623614037773371,-0.8682128617659177,False,0.5972542415528362,-0.3538704950207035,"['Fe', 'Li', 'O', 'Sn']"
mp-753134,Li6Mn5O10,3,True,-0.119688139670907,0.0323660873738454,-0.3593748414348421,False,-0.1025112472856436,-0.6031865572631402,"['Li', 'Mn', 'O']"
mp-10181,LiSiNi2,3,True,1.6358499607910404,0.5996252644262168,-0.8682128617659177,False,1.5926569381084823,-1.1189438927826574,"['Li', 'Ni', 'Si']"
mp-849418,Li3V3Cr2O10,4,False,-0.4473517311173888,-0.2195934439957427,-0.0783120839638787,False,0.0576226696333748,-0.1441830855511791,"['Cr', 'Li', 'O', 'V']"
mp-859106,Li3Ni2(PO3)7,4,True,-0.5108013804381017,0.0051563031811783,1.889127218332871,True,-0.6087567996198161,1.0949106878447803,"['Li', 'Ni', 'O', 'P']"
mp-650121,Li2SeO4,3,False,0.6962202331481172,0.5988497890570431,-0.5226905174213431,False,-0.8301211718078532,0.5599050067012772,"['Li', 'O', 'Se']"
mp-1174150,Li3MnCoO5,4,True,0.0900074852795596,0.2057037567256479,-0.8682128617659177,False,0.1462713563627694,-0.7193955544639471,"['Co', 'Li', 'Mn', 'O']"
mp-758283,LiCuF4,3,False,-0.1096406840844701,0.2652213923504052,-0.8682128617659177,False,-0.1518842746598022,0.3566745654823954,"['Cu', 'F', 'Li']"
mp-753305,LiTiSiO4,4,False,-1.1811462327168842,-0.2243796171768019,-0.8682128617659177,False,-0.0580440431119993,-0.8536334028876077,"['Li', 'O', 'Si', 'Ti']"
mp-1175489,Li9Mn2Co5O16,4,True,0.158570523162366,0.2174353736663439,-0.2054030971590116,False,0.3034255163556212,-0.4134701993187339,"['Co', 'Li', 'Mn', 'O']"
mp-554442,LiAuF4,3,False,-0.0496767964243087,0.9048238813358198,0.5391999247412994,True,1.1881054780743308,-0.2666693394337141,"['Au', 'F', 'Li']"
mp-861267,Li12MnV3P4(CO7)4,6,True,-0.4952661654915,-0.0227367466576862,0.1414057305370322,True,-0.7100694047165528,0.3863122767337756,"['C', 'Li', 'Mn', 'O', 'P', 'V']"
mp-30760,Li3Pb,2,False,1.8178931122123367,1.3334787491682163,-0.8682128617659177,False,0.9584179721258722,-1.0271880757313228,"['Li', 'Pb']"
mp-758961,Li3Fe4(BO3)4,4,True,-0.3559333727683272,-0.1408342675728305,0.025554519254734,True,-0.3053827028530482,0.1577367625903708,"['B', 'Fe', 'Li', 'O']"
mp-753569,Li5Fe2Co5O12,4,True,0.3704255533884542,0.1672444153605093,-0.8682128617659177,False,0.730840520658286,-0.6113246094008282,"['Co', 'Fe', 'Li', 'O']"
mp-1211157,LiCa4,2,False,2.5157137739993054,0.430005228167315,-0.8682128617659177,False,-1.597529338950749,-0.0609443506148147,"['Ca', 'Li']"
mp-772931,Na3Li3Fe2P2(CO7)2,6,True,-0.358577089589443,0.0464383195129387,0.6135451205261984,True,-0.5906089093900414,0.4722941944360188,"['C', 'Fe', 'Li', 'Na', 'O', 'P']"
mp-26400,Li2V(PO4)2,4,False,-0.723332173311867,-0.0651700340775164,0.1191292556615925,True,-0.4859188522963968,0.3777289540213954,"['Li', 'O', 'P', 'V']"
mp-6644,LiLa2RuO6,4,False,-0.9773654470335734,-0.1913035031404616,-0.6692142001886688,False,1.6964086493355712,-0.5030641038604893,"['La', 'Li', 'O', 'Ru']"
mp-757749,Li2Mn(PO4)2,4,True,-0.5684512115588075,-0.0260668426082069,-0.5961554877552382,False,-0.4072242922142907,1.9214091762143088,"['Li', 'Mn', 'O', 'P']"
mp-1222525,LiAlGeO4,4,False,-0.8140804686549664,0.0776933169647983,1.765286268341448,True,-0.2473035415657462,0.2133509061578946,"['Al', 'Ge', 'Li', 'O']"
mp-1222601,Li3Al2CoO6,4,True,-0.7038851778051552,0.1432262456731864,-0.3060196371739123,False,-0.0234311349264708,-0.9416733656960444,"['Al', 'Co', 'Li', 'O']"
mp-757783,Li4Ti3Cu3(WO8)2,5,False,-0.4136377422913873,-0.1112599263669669,-0.8682128617659177,False,0.992615080231889,-0.3351345047396383,"['Cu', 'Li', 'O', 'Ti', 'W']"
mp-1175266,Li7Mn4CoO12,4,True,0.0823197725352486,0.1518044691012393,-0.0638899284974085,False,0.1418924131589929,-0.6097685195537077,"['Co', 'Li', 'Mn', 'O']"
mp-1210804,Li2ZnGeS4,4,False,0.9223745955483148,0.8298171032104137,0.610972153823261,True,-0.6144528616800855,-0.2892999983772011,"['Ge', 'Li', 'S', 'Zn']"
mp-540965,Na2Li3FeO4,4,True,0.0859849740715092,0.4973998053196713,1.1849468575287196,True,-0.660138772703232,0.0572098610267929,"['Fe', 'Li', 'Na', 'O']"
mp-754066,Li3Co2CuO6,4,True,0.4576820360705065,0.3590996389255698,-0.8682128617659177,False,0.53854514104239,-0.9242198901852128,"['Co', 'Cu', 'Li', 'O']"
mp-756196,Li2Co3NiO8,4,True,0.5941772614740229,0.2326578340880875,-0.2349922142428014,False,0.7091447458794219,-0.4857973957853114,"['Co', 'Li', 'Ni', 'O']"
mp-769287,Li2TiS2O,4,False,-0.0397286455238229,0.3223260103542096,0.6897861865132634,True,-0.9852175246458348,-0.0434309203983473,"['Li', 'O', 'S', 'Ti']"
mp-18809,Li2VGeO5,4,False,-0.4466817674766886,0.0583999279505203,-0.8682128617659177,False,-0.1029280709452914,-0.0784225161894717,"['Ge', 'Li', 'O', 'V']"
mp-772030,LiTiO2,3,False,-1.0935960936656113,-0.1786591665175849,-0.8682128617659177,False,0.2558875218055937,-0.8352812352078242,"['Li', 'O', 'Ti']"
mp-1280510,Li2Ni3TeO8,4,True,0.4889429364890784,0.3436919034706013,-0.727512208905243,False,0.7934792834968402,-0.3725379271367,"['Li', 'Ni', 'O', 'Te']"
mp-850949,LiMnSiO4,4,True,-0.729842101907531,-0.1578548363595291,-0.2630917190248907,False,-0.1649909609205009,-0.395323045328392,"['Li', 'Mn', 'O', 'Si']"
mp-1236582,Sr2LiCoWO6,5,True,-0.4513868396577425,-0.0329549051310613,0.4452189304339764,True,1.403659911826169,-0.8110231569855357,"['Co', 'Li', 'O', 'Sr', 'W']"
mp-766013,Li2Cu4Si4O13,4,False,-0.2954657046854232,0.1206093682201954,-0.7958312458332605,False,0.0230988371326376,0.2527457498616661,"['Cu', 'Li', 'O', 'Si']"
mp-752710,Li3CrB4O9,4,False,-0.7109609729712386,-0.1272875507206259,0.585919583294651,True,-0.7512453973234926,-0.2889488021351373,"['B', 'Cr', 'Li', 'O']"
mp-753987,Li4Mn2Co3Te3O16,5,True,0.29327853075881,0.2072549693912828,-0.3526038764271105,False,0.6729002192562782,-0.2771124966758581,"['Co', 'Li', 'Mn', 'O', 'Te']"
mp-976114,Li2CdHg,3,False,1.813885133800617,-3.3684619267816505,-0.8682128617659177,False,2.6722021633857977,-1.0357557785561915,"['Cd', 'Hg', 'Li']"
mp-29630,Li7Ge2,2,False,1.8209235573875988,1.2901165159531789,-0.8682128617659177,False,-0.8884869934497847,-0.4706190145423855,"['Ge', 'Li']"
mp-1222274,LiSmS2,3,False,-0.0123343132005332,0.4543951733007333,-0.6932511259661175,False,0.3130640658444041,-0.9864404334955414,"['Li', 'S', 'Sm']"
mp-765224,Li2Ni4OF8,4,True,-0.3827960082925791,0.5248573026755353,1.4001958351245276,True,0.3627927066167149,-0.3073257033158564,"['F', 'Li', 'Ni', 'O']"
mp-1369691,Li9Mn2Co5O16,4,True,1.256849205741146,0.5070826997238777,-0.8682128617659177,False,0.3304855355880629,-0.4213290007840882,"['Co', 'Li', 'Mn', 'O']"
mp-1176257,Li9Mn2Co5O16,4,True,0.2092570885732462,0.2308028626026038,-0.8682128617659177,False,0.2649270681749099,-0.4020252029537418,"['Co', 'Li', 'Mn', 'O']"
mp-760310,LiFe2(BO3)2,4,True,-0.3139090729740993,-0.1766535237259898,0.1189938363614385,True,-0.3335842227482781,0.1553610886897462,"['B', 'Fe', 'Li', 'O']"
mp-758241,LiCrSiO4,4,False,-0.8424247752927667,-0.2078992044755413,1.0361210466587658,True,0.0553995031617983,-0.4824752243785056,"['Cr', 'Li', 'O', 'Si']"
mp-764865,Li8FeCo9O20,4,True,0.3555454366726287,0.2054434781078959,-0.7680702893015591,False,0.6992996694524685,-0.2764913223031087,"['Co', 'Fe', 'Li', 'O']"
mp-1176815,Li9Mn5O12,3,True,-0.0936115783649671,0.1485213132657784,0.0491174774816421,True,-0.1427690407716668,0.1966029112039816,"['Li', 'Mn', 'O']"
mp-20363,LiGa2Pt,3,False,1.4902293100260795,0.9136245073682744,-0.8682128617659177,False,4.167844195774864,-1.074082949687735,"['Ga', 'Li', 'Pt']"
mp-1236215,CsLiAcO3,4,False,-0.2268831912832766,0.4255885422673959,-0.8682128617659177,False,1.335548692501152,-0.8919934793437552,"['Ac', 'Cs', 'Li', 'O']"
mp-772979,Li3Zn3(Ge3O8)2,4,False,-0.1169942977396642,0.3015952343816408,-0.8682128617659177,False,0.8939987364324637,0.4754322046773138,"['Ge', 'Li', 'O', 'Zn']"
mp-1100590,Li9Mn2Co5O16,4,True,0.1847921958577388,0.2243507745581625,-0.8657753143631349,False,0.2503007152493559,-0.3975933009649838,"['Co', 'Li', 'Mn', 'O']"
mp-1100541,Li9Mn7O16,3,True,-0.1876987734812225,0.0341466558280561,-0.2374974712956629,False,0.1033920687662883,-0.3748559945197721,"['Li', 'Mn', 'O']"
mp-862462,Li2MnV4NiO12,5,True,-0.3035372377416064,-0.2019733344971698,0.055346765288755,True,-0.2580169059234475,-0.4924254926573239,"['Li', 'Mn', 'Ni', 'O', 'V']"
mp-883780,LiMn2(PO4)2,4,True,4.145197448253724,1.0551742739094814,-0.8682128617659177,False,-0.2949470882373201,0.0952305690378678,"['Li', 'Mn', 'O', 'P']"
mp-763431,LiMn5O3F5,4,True,-0.5635315889042111,-0.1047910353831052,-0.4079903701903594,False,0.0218225133934331,-0.6999226885295804,"['F', 'Li', 'Mn', 'O']"
mp-30403,Li2PbAu,3,False,1.72857231857541,1.2109124130762134,-0.8682128617659177,False,3.79968105339665,-1.0255682011532476,"['Au', 'Li', 'Pb']"
mp-989504,Na2LiNF6,4,False,0.1791895720975269,0.8776526850637558,0.9952921276621414,True,-0.6713607957956482,-0.9223301618310008,"['F', 'Li', 'N', 'Na']"
mp-30769,Li13Sn5,2,False,1.7393249413483045,1.274289577844076,-0.8682128617659177,False,-0.1390768354357389,-0.3125827501574489,"['Li', 'Sn']"
mp-756940,LiTiV3O10,4,False,-0.616056381183264,-0.2975928694859371,0.4016816254342584,True,-0.5168418755361062,-0.6461751369143279,"['Li', 'O', 'Ti', 'V']"
mp-757096,LiCrPO4,4,False,-0.6077723090456183,-0.1456066237592339,1.2211038106700098,True,-0.5160135207871396,1.7346057222853006,"['Cr', 'Li', 'O', 'P']"
mp-758490,Li2CrSiO4,4,False,-0.6456351915987132,-0.0346735664812135,1.0261000184473228,True,-0.7063213911401274,1.0105908208303545,"['Cr', 'Li', 'O', 'Si']"
mp-1228739,Ba2Li3Y3(MoO4)8,5,False,-0.6124191728709177,-0.2801772361288978,0.6503791701682624,True,0.5795007453393568,0.6747779260744141,"['Ba', 'Li', 'Mo', 'O', 'Y']"
mp-1211674,Li3PF6,3,False,-0.6408767987497268,0.3565892180517588,1.6349451919426037,True,-1.3944699793487385,-0.7609939898323776,"['F', 'Li', 'P']"
mp-759998,Li4Nb(TeO4)3,4,False,-0.0266714982148218,0.2762164051488914,-0.8682128617659177,False,0.8714226069637909,-0.5781660851715043,"['Li', 'Nb', 'O', 'Te']"
mp-1236558,K2BaLiCo(NO2)6,6,True,0.9653246884068556,0.2463562905756778,-0.8682128617659177,False,-0.7242734491027665,-0.2362220767782124,"['Ba', 'Co', 'K', 'Li', 'N', 'O']"
mp-1176996,Li6Fe5WO12,4,True,0.0595101586336712,0.0295142650243186,-0.8679420231656091,False,0.7276602344350221,-0.5476230796041427,"['Fe', 'Li', 'O', 'W']"