material_id,formula_pretty,n_elements,contains_transition_metal,formation_energy_per_atom,energy_per_atom,band_gap,is_semiconductor,density,volume,elements
mp-1176609,LiNb(PO3)4,4,False,-0.6821611947517985,-0.1410147971363931,-0.7423406222721766,False,-0.5613862168347682,0.1313542245009504,"['Li', 'Nb', 'O', 'P']"
mp-1344863,LiMn4(BO3)4,4,True,0.9265983021278106,0.0608905235163207,-0.8049043389436217,False,-0.4280927902611264,-0.5260440028272262,"['B', 'Li', 'Mn', 'O']"
mp-775462,LiFeCuO4,4,True,0.6278070238255389,0.2838456297306972,-0.8682128617659177,False,0.2704610319258591,-0.7988076254824709,"['Cu', 'Fe', 'Li', 'O']"
mp-10499,LiZr2(PO4)3,4,False,-1.316893390460553,-0.3338580401966454,2.011681684972823,True,-0.3572093565411932,1.5902287170202496,"['Li', 'O', 'P', 'Zr']"
mp-765054,LiNiPO4,4,True,-0.3168369812783833,0.091652118439229,1.1428314551806256,True,-0.0994874031417768,1.327735213040637,"['Li', 'Ni', 'O', 'P']"
mp-760268,Li5Fe8(BO3)8,4,True,-0.3442516845745252,-0.1606834675652899,0.0971236193864634,True,-0.319814930203218,0.1567677385442525,"['B', 'Fe', 'Li', 'O']"
mp-1100601,Li9Mn2Co5O16,4,True,0.2923284470776547,0.2527111425723761,-0.8682128617659177,False,0.2612051237476123,-0.4009018631238147,"['Co', 'Li', 'Mn', 'O']"
mp-723059,Li3Nd2H6(N3O10)3,5,False,0.6291935894612598,0.201045053562083,1.5118490481020312,True,-0.8385818162461226,5.839622774952828,"['H', 'Li', 'N', 'Nd', 'O']"
mp-759569,Li2Fe2Co3O10,4,True,0.6403472610702915,0.1436045737442886,-0.8682128617659177,False,0.3401805039416403,-0.1969770356113221,"['Co', 'Fe', 'Li', 'O']"
mp-766710,Li2SiNiO4,4,True,-0.5190504465704825,0.1391748998786973,1.4450196234757144,True,-0.3535116317095257,-0.2579372383927816,"['Li', 'Ni', 'O', 'Si']"
mp-762163,Li3TiMn2O6,4,True,-0.545904195854225,-0.0954636824883223,-0.8682128617659177,False,0.061894026897343,-0.8955533000003496,"['Li', 'Mn', 'O', 'Ti']"
mp-850537,Li4V3Fe2Sb3O16,5,True,-0.1847510263035225,0.0042485523874016,-0.8682128617659177,False,0.5962972009900184,-0.2943990245667424,"['Fe', 'Li', 'O', 'Sb', 'V']"
mp-542050,LiV6O13,3,False,-0.4856437648916085,-0.3408843624526381,-0.401896501683401,False,-0.0903794145716718,0.1427931714259771,"['Li', 'O', 'V']"
mp-759221,Li3Fe4P3H12O19,5,True,0.1781855914209619,0.2368684863888897,-0.8671295073646813,False,-0.8643496550416809,1.3099866565754965,"['Fe', 'H', 'Li', 'O', 'P']"
mp-859799,Li9Si2Ni5O16,4,True,-0.0018214279970189,0.3042492726018274,-0.4644602183548467,False,0.2679671485900972,-0.466365493455133,"['Li', 'Ni', 'O', 'Si']"
mp-30344,Li2InAg,3,False,1.8084781345186307,-1.5174168913934454,-0.8682128617659177,False,1.246596330688738,-1.0360761016821762,"['Ag', 'In', 'Li']"
mp-1348170,Li3Cr2P4HO14,5,False,0.0906773744593418,0.1196514060359364,0.0455288660275439,True,-0.7261892166820636,-0.3857874861387437,"['Cr', 'H', 'Li', 'O', 'P']"
mp-775754,Li4Nb3V2Co3O16,5,True,-0.4004278608925807,-0.190381341692867,-0.5606079214646434,False,0.4957878096412849,-0.3401195052954346,"['Co', 'Li', 'Nb', 'O', 'V']"
mp-1001615,LiZrSe2,3,False,0.4482190729004975,-2.2425933331515555,-0.8682128617659177,False,1.0177083431887577,-1.0052088025967216,"['Li', 'Se', 'Zr']"
mp-1174342,Li7Co5O12,3,True,0.3444291056985378,0.3190289879188203,-0.8682128617659177,False,0.2505961600559124,-0.6159432418044948,"['Co', 'Li', 'O']"
mp-768997,LiBi3O5,3,False,0.3566530083651511,0.3974678227268809,0.5576169495623311,True,3.5221593774850417,0.2807184059199401,"['Bi', 'Li', 'O']"
mp-996989,LiAgO2,3,False,1.2855926244582294,0.8152971898276263,-0.8682128617659177,False,0.667251336072336,-0.9416021722839504,"['Ag', 'Li', 'O']"
mp-759640,LiCuCO3,4,False,0.3522969142521677,0.1770258882381249,0.5451583739481031,True,-0.3188379611345748,-0.4736051783578026,"['C', 'Cu', 'Li', 'O']"
mp-755903,Li2Mn2CuO6,4,True,0.2288598303519457,0.1238731410548358,-0.7085535068835929,False,0.2198271304652585,-0.5720674251067376,"['Cu', 'Li', 'Mn', 'O']"
mp-1174266,Li7Co5O12,3,True,0.3301548270742525,0.3152644546537144,-0.61355686782511,False,0.2648742577668541,-0.6191458240415112,"['Co', 'Li', 'O']"
mp-1185233,Li2YIn,3,False,1.738130158195207,-1.4603661715936862,-0.8357799393788812,False,0.5216317956738084,-1.0078113253419865,"['In', 'Li', 'Y']"
mp-28060,LiGeTe2,3,False,1.482552950361464,0.999927178905733,-0.5722539812779428,False,0.6565777496855804,0.7974290211071575,"['Ge', 'Li', 'Te']"
mp-1188485,Li2BF5,3,False,-1.2586506793707577,0.2003664977669622,4.23377698121038,False,-0.9192788496174764,-0.7551322963843152,"['B', 'F', 'Li']"
mp-758595,Li2CrSiO4,4,False,-0.6438617429272366,-0.0342058576257641,0.2176467965240967,True,-0.5743040495752005,-0.1904981284134985,"['Cr', 'Li', 'O', 'Si']"
mp-1174530,Li7Mn2(CoO4)3,4,True,0.0934300555305823,0.2037839830762203,-0.3967505682775239,False,0.2265786200290273,-0.001552152723938,"['Co', 'Li', 'Mn', 'O']"
mp-1110657,Na2LiSbF6,4,False,-0.8566592451002533,0.7266010354604959,1.5736002489725496,True,-0.3513936488057769,-0.8089564164184047,"['F', 'Li', 'Na', 'Sb']"
mp-1235066,Ba6LiNb2Ir(ClO6)2,6,False,-0.9111884324496586,0.0225674695885091,0.0247420034538061,True,0.8257683643666516,0.1777161021941223,"['Ba', 'Cl', 'Ir', 'Li', 'Nb', 'O']"
mp-780308,Li5Mn6(BO3)6,4,True,-0.5593844071319077,-0.2141688821726795,-0.5824104287895419,False,-0.4164365553821352,-0.1386990934557049,"['B', 'Li', 'Mn', 'O']"
mp-1030894,LiLaMg6O8,4,False,-1.038441303761683,0.2455372138267536,2.9340902479761826,True,0.1073007801930925,-0.7235756461765487,"['La', 'Li', 'Mg', 'O']"
mp-1210756,Li2FeN,3,True,1.8291067394746412,0.5249854724739923,-0.8682128617659177,False,-0.3538110577351749,-1.1135152622983495,"['Fe', 'Li', 'N']"
mp-1174602,Li4MnCo2O7,4,True,0.1436343968664714,0.2150082938297857,-0.2675605559299939,False,0.2541699063109452,-0.5123973272399699,"['Co', 'Li', 'Mn', 'O']"
mp-753338,LiVF4,3,False,-1.2931246602228916,0.2959305618066487,0.6197744083333129,True,-0.5984276806469259,-1.0133689289444208,"['F', 'Li', 'V']"
mp-753423,LiMn2(PO4)2,4,True,-0.5374172080708383,-0.1797643948240245,-0.36777083804443,False,-0.6297531585247336,-0.1908690763095569,"['Li', 'Mn', 'O', 'P']"
mp-1199613,LiCe(C2O5)2,4,False,0.3932551401974014,-0.0665048235095799,-0.6830269688044425,False,-0.7922653812082205,1.415941212766507,"['C', 'Ce', 'Li', 'O']"
mp-1190687,CsLi2Cl3,3,False,-0.1271825907769088,-0.8323700205514439,2.7380031013522577,True,-0.7031849784314227,0.5606213233779865,"['Cl', 'Cs', 'Li']"
mp-25879,LiNi3P3O11,4,True,-0.3108326068512742,0.0072771516781282,1.6499767342597682,True,-0.0482683339530247,1.1185106390661184,"['Li', 'Ni', 'O', 'P']"
mp-1247387,Li3CN2,3,False,1.5880068385022876,0.4278995230067323,-0.5309510947307764,False,-1.2726274210346151,-0.6066754454832095,"['C', 'Li', 'N']"
mp-1236085,LiMn9CdO10,4,True,0.2869481247163514,-0.2481325808921105,-0.8682128617659177,False,0.9437908272978328,-0.519226938498117,"['Cd', 'Li', 'Mn', 'O']"
mp-1105785,LiH2N,3,False,1.5623744706217328,0.7149473136103592,-0.8682128617659177,False,-1.6472154689195588,-0.8962574632493577,"['H', 'Li', 'N']"
mp-1275523,Li3Mn(CoO3)2,4,True,0.2162284045399332,0.1730079701666723,-0.3354056253074701,False,0.3977856493774259,-0.5988875833035939,"['Co', 'Li', 'Mn', 'O']"
mp-758641,Li4Fe2Ni5O12,4,True,0.5431564806727539,0.2583603090927937,-0.8682128617659177,False,0.7190360995265563,0.0039055661568005,"['Fe', 'Li', 'Ni', 'O']"
mp-1113739,Na2LiNdCl6,4,False,-0.1348682476892767,-0.697517083657119,1.8465378484342352,True,-0.9218809873415822,-0.4097087876608029,"['Cl', 'Li', 'Na', 'Nd']"
mp-1106166,LiGaPO5,4,False,-0.1955518920452835,0.2144387610437812,-0.4091414342416745,False,-0.3442637489184763,-0.6820402027667479,"['Ga', 'Li', 'O', 'P']"
mp-757516,LiNi4(PO4)3,4,True,-0.142626256138793,0.0409515653604802,1.3568616590750415,True,-0.2169461625742853,1.7100890711862131,"['Li', 'Ni', 'O', 'P']"
mp-773607,LiTiNiO4,4,True,-0.3960525491423092,-0.032035194145702,-0.8682128617659177,False,0.2099755475090032,-0.4004718052431062,"['Li', 'Ni', 'O', 'Ti']"
mp-1235528,LiFe6(OF2)4,4,True,-0.2674666892815305,0.1269444002813876,0.2278032440356951,True,0.2600978017230524,-0.5917226783986336,"['F', 'Fe', 'Li', 'O']"
mp-1211012,LiYGeO4,4,False,-1.0096675735913674,-0.088435340449294,1.7162644816854673,True,0.3173254651671691,-0.1826482990729275,"['Ge', 'Li', 'O', 'Y']"
mp-1236113,Ba2Li(NiO3)2,4,True,0.2344936974495998,0.3610098881065285,-0.5847802665422481,False,1.157805243121581,-0.8051082046188319,"['Ba', 'Li', 'Ni', 'O']"
mp-504760,Li10Pb3,2,False,1.9283134761583247,1.372664090488681,-0.8682128617659177,False,0.4594051427817378,1.74894460687486,"['Li', 'Pb']"
mp-778721,Li8Mn7Fe(BO3)8,5,True,-0.5621209877916159,-0.1814985461033994,1.235729095086712,True,-0.3797972446511853,0.2178695588149802,"['B', 'Fe', 'Li', 'Mn', 'O']"
mp-780207,Li5FeO4,3,True,-0.0118629403100048,0.4386800629829355,0.7616261252453025,True,-0.8491739773301448,-0.0434061681662277,"['Fe', 'Li', 'O']"
mp-1175736,Li9Mn2Co5O16,4,True,0.1528098741558178,0.2159161266777882,0.0057155917820786,True,0.3092556794354413,-0.4151761562415166,"['Co', 'Li', 'Mn', 'O']"
mp-765917,LiV2OF5,4,False,-1.140620662216399,0.1226789391973646,0.3785926347578915,True,-0.2786014972889243,-0.2896887468524382,"['F', 'Li', 'O', 'V']"
mp-694894,LiMn12O24,3,True,0.1688737650734338,-0.2250665998494836,-0.8682128617659177,False,0.2245858248812961,1.226690222246828,"['Li', 'Mn', 'O']"
mp-1192296,LiSnSb,3,False,1.9102002019967588,1.070776430213206,-0.8682128617659177,False,1.089163705704696,0.5265010480216394,"['Li', 'Sb', 'Sn']"
mp-1203254,Na3Li(MoO7)2,4,False,1.1649991061951166,0.4402787225521048,-0.6521513683691829,False,-0.6820166667869985,0.4888234345582659,"['Li', 'Mo', 'Na', 'O']"
mp-1100701,Li9Mn2Co5O16,4,True,0.1755784394773312,0.2219208449411509,-0.4337877468698191,False,0.2860518498298986,-0.4083443100726358,"['Co', 'Li', 'Mn', 'O']"
mp-860940,LiV2OF5,4,False,-1.1913710170431706,0.1092946271778233,0.379540569858974,True,-0.1900965103161698,-0.0217991154186172,"['F', 'Li', 'O', 'V']"
mp-864630,LiMg2Hg,3,False,1.9064927758177532,1.6440824680724535,-0.8682128617659177,False,1.2514298493729068,-1.0196385168111926,"['Hg', 'Li', 'Mg']"
mp-1223044,Li3ZnFe2(PO4)3,5,True,-0.5620244525708609,0.0151155954269262,1.6342003857917522,True,-0.1169847930207562,1.3519687995893104,"['Fe', 'Li', 'O', 'P', 'Zn']"
mp-752838,Li2V3(OF)4,4,False,-0.9326304417792264,-0.0132461307111846,-0.0331497473623041,False,-0.23660406290135,-0.3722263116604158,"['F', 'Li', 'O', 'V']"
mp-780775,Sr3Li3Cu3(PO4)4,5,False,-0.6836815284837926,0.1185081305194029,0.0787065945654311,True,0.0067378539618229,0.9403240246671078,"['Cu', 'Li', 'O', 'P', 'Sr']"
mp-1175600,Li9Mn2Co5O16,4,True,0.1820445062889307,0.2236261306685322,-0.8682128617659177,False,0.3389967103082357,-0.4237699541597952,"['Co', 'Li', 'Mn', 'O']"
mp-776483,Li2MnPO4F,5,True,-0.7809010003087491,0.0400068006375055,1.7547912725794634,True,-0.4990837039351833,-0.071194733086415,"['F', 'Li', 'Mn', 'O', 'P']"
mp-1100606,Li9Mn2Co5O16,4,True,0.1665226851581651,0.2195325849616149,-0.8682128617659177,False,0.2903792618822319,-0.4096270103699428,"['Co', 'Li', 'Mn', 'O']"
mp-756633,Li3BiO3,3,False,0.0814503661446983,0.5463483203014008,1.029485500951188,True,0.9340421385315408,-0.2028107363644793,"['Bi', 'Li', 'O']"
mp-759911,Li5TiV3O8,4,False,-0.5205227712100596,-0.0368948715879324,-0.3989849867300762,False,0.0156616345917442,0.6088072318545162,"['Li', 'O', 'Ti', 'V']"
mp-757609,Li2FeCO4,4,True,0.0007697025741989,0.0407668025275676,0.952161080562887,True,-0.7534693994349796,-0.172945278642095,"['C', 'Fe', 'Li', 'O']"
mp-1239180,Li19La12Zr8O48,4,False,-1.17472981128854,-0.109687217648688,-0.8604262520070264,False,0.7275895189798229,2.0292000367655567,"['La', 'Li', 'O', 'Zr']"
mp-752577,LiVOF3,4,False,-1.0142403104324855,0.222757076784875,0.2893513159559809,True,-0.5559882076780241,-0.3782688587963502,"['F', 'Li', 'O', 'V']"
mp-6373,Li3Fe2(PO4)3,4,True,-0.585123504831577,-0.0414715597110214,0.7633188664972358,True,-0.5292548511947553,1.4673716267848933,"['Fe', 'Li', 'O', 'P']"
mp-1100619,Li9Mn2Co5O16,4,True,0.239094752045293,0.2386719031089627,-0.8682128617659177,False,0.2400999218410528,-0.3944744659161887,"['Co', 'Li', 'Mn', 'O']"
mp-1178106,Li(FeO2)2,3,True,0.3552115143139454,0.0307856798845313,-0.8682128617659177,False,0.3879908314773896,-0.4292229071320789,"['Fe', 'Li', 'O']"
mp-1301464,Li4Mn3CoO8,4,True,-0.0577782028478603,0.0394328640126103,-0.2668834594292201,False,0.2898529290422001,-0.3681960272863619,"['Co', 'Li', 'Mn', 'O']"
mp-1176943,Li6V3P8O29,4,False,-0.750874414844988,-0.0817519414744688,-0.120562905612127,False,-0.7815038999038693,2.1275372481807944,"['Li', 'O', 'P', 'V']"
mp-1177534,Li3V3CoO8,4,True,-0.3251525468416565,-0.0885630193594701,-0.2594353979207153,False,0.2453678367614186,-0.8181957516334982,"['Co', 'Li', 'O', 'V']"
mp-753859,Li3Cr2P4HO14,5,False,-0.5751001340751847,-0.0559330591414072,1.3546272406224895,True,-0.726189120542832,-0.3857875321000243,"['Cr', 'H', 'Li', 'O', 'P']"
mp-754026,Li3Mn2(SiO4)2,4,True,-0.6778620791887956,-0.0807955655344684,-0.8682128617659177,False,-0.5466761247498162,-0.7234264066151367,"['Li', 'Mn', 'O', 'Si']"
mp-760089,LiMn2OF3,4,True,-0.754967535694999,0.0579223350042539,0.3060755995250796,True,-0.1389318349946582,-0.2104980646056829,"['F', 'Li', 'Mn', 'O']"
mp-1175578,Li9Mn2Co5O16,4,True,0.1432023137046271,0.2133823397266572,-0.0007845346253443,False,0.3282661974996509,-0.4206901009436787,"['Co', 'Li', 'Mn', 'O']"
mp-752507,LiCuPO4,4,False,-0.2146300008217116,0.1882809774858448,-0.8516239974969745,False,-0.3169137218341754,-0.2696194188057896,"['Cu', 'Li', 'O', 'P']"
mp-757404,Li2Cu2Si5O13,4,False,-0.7573312053304382,-0.0255438624215016,-0.4450275487826546,False,-0.3308488643096283,0.2033756570609866,"['Cu', 'Li', 'O', 'Si']"
mp-771092,Li6Mn3Cr(PO4)6,5,True,-0.6192220566054814,-0.0741041546264073,-0.3895733453693284,False,-0.5398806187245694,0.1112077494734031,"['Cr', 'Li', 'Mn', 'O', 'P']"
mp-753797,LiVSiO4,4,False,-0.874105838663167,-0.1926636865053271,0.9275147679347416,True,-0.6943782279207765,-0.1777171794251342,"['Li', 'O', 'Si', 'V']"
mp-757328,Li7Mn2P7O24,4,True,-0.6708211167976152,-0.0043625641874689,-0.0336237149128455,False,-0.6911449463003532,1.4415219917219133,"['Li', 'Mn', 'O', 'P']"
mp-1028208,LiMg14Al,3,False,2.1944087010474904,1.601000273145684,-0.8682128617659177,False,-1.3431056600357665,-0.2086207214356145,"['Al', 'Li', 'Mg']"
mp-758142,Li6TiFe3(PO4)6,5,True,-0.6784267460221043,-0.0619108215749504,0.0706491462062305,True,-0.553779503397544,0.1184887825856125,"['Fe', 'Li', 'O', 'P', 'Ti']"
mp-764917,Li3VO3F,4,False,-0.6662292290376711,0.2181136910496046,0.1341607979787586,True,-0.3827794787326946,-0.4007343619147791,"['F', 'Li', 'O', 'V']"
mp-1174103,Li4MnCo3O8,4,True,0.2397205767304324,0.1914658782294138,-0.8682128617659177,False,0.3954091445747068,-0.8101552112772475,"['Co', 'Li', 'Mn', 'O']"
mp-1211242,LiBiF2,3,False,-0.181354018716653,-3.379276172889597,-0.6607504939290029,False,1.9465466804122689,-0.5068653526631456,"['Bi', 'F', 'Li']"
mp-1018761,Li3CeSb2,3,False,1.0676663178780417,-2.503517619909334,-0.8682128617659177,False,0.7739286200056938,-0.8429261220316747,"['Ce', 'Li', 'Sb']"
mp-1200910,Li7H5N4,3,False,1.535123002545217,0.7886159509164794,0.9122800966673444,True,-1.569642416231254,0.2596167450968555,"['H', 'Li', 'N']"
mp-26897,LiSn(PO3)3,4,False,-0.5738845185555889,0.0051300616078338,1.27141208067746,True,-0.3942069664000207,-0.1382031972532538,"['Li', 'O', 'P', 'Sn']"
mp-756912,LiZnBO3,4,False,-0.4430798186714693,0.2278505907283622,1.147435711385884,True,-0.2305767601028332,-0.4994849316261263,"['B', 'Li', 'O', 'Zn']"
mp-752820,Li2VP2O7,4,False,-0.7407083666245434,-0.0678794930798793,1.2489324768517898,True,-0.726270622343849,-0.3788678542318421,"['Li', 'O', 'P', 'V']"
mp-1222772,Li(TiTe2)5,3,False,1.0723032070820306,0.5010273037376083,-0.8682128617659177,False,1.2882259315355689,0.0479019234048048,"['Li', 'Te', 'Ti']"
mp-776122,LiFe2F5,3,True,-0.7267471180086814,0.3164056512950404,0.8694875978184766,True,-0.4542791282296019,0.0959116476915865,"['F', 'Fe', 'Li']"
mp-1026793,LiMg14Cr,3,False,2.279003282224231,1.5161828523355774,-0.8682128617659177,False,-1.2594834867555127,-0.2132964377602551,"['Cr', 'Li', 'Mg']"
mp-807588,Li3Mn2P4HO14,5,True,1.6617004036121956,0.5458475126173027,-0.7279861764557845,False,-0.6989541827680155,-0.3881840514226464,"['H', 'Li', 'Mn', 'O', 'P']"
mp-764815,Li3Fe8(BO3)8,4,True,-0.3087384415375975,-0.2003771361117198,0.315622660185982,True,-0.3638432632546675,0.1646368790266286,"['B', 'Fe', 'Li', 'O']"
mp-769050,Li2NbS3,3,False,0.6333402727642098,0.4323155221272948,-0.7109233446362991,False,-0.308302903387157,-0.0546112114373262,"['Li', 'Nb', 'S']"
mp-864597,LiMgTl2,3,False,2.019566974948527,1.4705967727060962,-0.8682128617659177,False,2.8669804368173497,-0.9755808399291748,"['Li', 'Mg', 'Tl']"
mp-769455,Li4Ti4Mn4CrO18,5,True,-0.7191537615630313,-0.2849250099763193,-0.8682128617659177,False,0.0251413993859943,0.734021503761991,"['Cr', 'Li', 'Mn', 'O', 'Ti']"
mp-4556,Li2SO4,3,False,-0.370943759114671,0.2907790392417689,3.2033038166836154,True,-0.9945390169889542,-0.3066385715796992,"['Li', 'O', 'S']"
mp-752707,Li2CoBO4,4,True,-0.22362705329829,0.1225217726897135,0.1202803197129076,True,-0.2866047613118214,-0.3858005674019424,"['B', 'Co', 'Li', 'O']"
mp-755986,Li2NbCr3O8,4,False,-0.6382600437046168,-0.3385831515285673,0.4723027904649047,True,0.2821919112139639,-0.3399136049781266,"['Cr', 'Li', 'Nb', 'O']"
mp-757177,Li6CuS4,3,False,0.8084129061053819,0.905089542935332,-0.8682128617659177,False,-1.07998788418521,-0.1900514718502581,"['Cu', 'Li', 'S']"
mp-1120737,Li2La4O7,3,False,-1.1298603513945389,-0.0581366648859974,0.5947218378047031,True,0.3568490641938646,-0.4752986735819771,"['La', 'Li', 'O']"
mp-1174058,Li4MnCo3O8,4,True,0.2036922375873451,0.1819641804721683,-0.5656184355703652,False,0.4733142604194399,-0.8213350110363399,"['Co', 'Li', 'Mn', 'O']"
mp-1111439,Cs2LiSbCl6,4,False,0.0756203851469797,1.0090092494106535,1.1297634927157023,True,-0.2865366475495063,-0.3616717369299276,"['Cl', 'Cs', 'Li', 'Sb']"
mp-1096285,Li2CuAg,3,False,3.279312833658781,-0.2785279674100963,0.3741915075028649,True,-2.232542537488442,0.9111991453445104,"['Ag', 'Cu', 'Li']"
mp-850947,Li3Mn5Cr2O12,4,True,-0.1485509870102884,-0.2178123903875647,-0.8319204893244738,False,0.3418014433223841,-0.5725489291827395,"['Cr', 'Li', 'Mn', 'O']"
mp-1177007,Li6Mn3V(PO4)6,5,True,-0.6868780671849962,-0.0878185936964613,-0.8569053502030051,False,-0.5521108644839892,1.4739727493107313,"['Li', 'Mn', 'O', 'P', 'V']"
mp-1102716,Li8SbO3,3,False,0.7497192411423481,0.9084858764409792,-0.8682128617659177,False,-0.7859954673294606,-0.8187148181899492,"['Li', 'O', 'Sb']"
mp-818178,LiCoPO4F,5,True,2.959314236420805,1.0076154898604452,-0.8682128617659177,False,-0.1688572353462826,-0.7450812318997418,"['Co', 'F', 'Li', 'O', 'P']"
mp-769637,Li5Ti6FeO16,4,True,-1.2040031862926863,-0.2767137097502835,0.961978979824099,True,-0.1676466860359998,0.4984481615216296,"['Fe', 'Li', 'O', 'Ti']"
mp-799423,Li7Mn(OF)3,4,True,1.279446016221108,0.9827352812638516,-0.8682128617659177,False,-0.9607529735026948,-0.3740831441717745,"['F', 'Li', 'Mn', 'O']"
mp-27033,Li2SnP2O7,4,False,-0.6391509809161129,0.0815962336209178,1.793859740674078,True,-0.2879990795045197,0.5328321589621914,"['Li', 'O', 'P', 'Sn']"
mp-775232,LiCr4(PO4)3,4,False,-0.4814808579981881,-0.2731571809158755,-0.8682128617659177,False,-0.0484805359230477,0.0651918763165725,"['Cr', 'Li', 'O', 'P']"
mp-771498,Li4Ti3Fe5O16,4,True,-0.4086146576312648,-0.1527964783220536,-0.8682128617659177,False,0.2292654248027564,-0.4103740880342577,"['Fe', 'Li', 'O', 'Ti']"
mp-887364,Li3FeOF3,4,True,-0.743160955205173,0.4401740889099613,1.057991263633741,True,-0.2985954518183382,-0.8037454044553604,"['F', 'Fe', 'Li', 'O']"
mp-1176224,Li9Mn2Co5O16,4,True,0.1661229336069004,0.219427159107733,-0.6388802769540285,False,0.3416347210680971,-0.4245235607674301,"['Co', 'Li', 'Mn', 'O']"