material_id,formula_pretty,n_elements,contains_transition_metal,formation_energy_per_atom,energy_per_atom,band_gap,is_semiconductor,density,volume,elements
mp-850898,LiMn2(BO3)2,4,True,-0.4919974736276392,-0.2601260308256873,-0.8682128617659177,False,-0.4182285544942996,-0.5187538529854702,"['B', 'Li', 'Mn', 'O']"
mp-1096495,LiNi2As,3,True,4.154910240424504,-0.343673599190547,-0.8638794441609697,False,-2.219535799680118,0.969238693859531,"['As', 'Li', 'Ni']"
mp-1175216,Li7Mn4CoO12,4,True,-0.0795525634109543,0.1091141301069364,-0.542935702794463,False,0.1535124733128954,-0.6125108599628436,"['Co', 'Li', 'Mn', 'O']"
mp-1235700,LiSm2SO2,4,False,-0.7366350371606245,0.1171404151954996,-0.8682128617659177,False,1.691667822354415,-0.9542686511902294,"['Li', 'O', 'S', 'Sm']"
mp-25372,LiCuO2,3,False,0.6506112984400864,0.5567086973523723,-0.8682128617659177,False,0.6626843788887383,-1.1344913262756982,"['Cu', 'Li', 'O']"
mp-865875,Li3Ag,2,False,2.037105624907304,0.0075353215421884,-0.8682128617659177,False,-0.3337525676789794,-1.0483642210655384,"['Ag', 'Li']"
mp-863379,Li3V3P8O29,4,False,-0.6068255907023808,-0.1043628805599097,-0.0575252213901401,False,-0.8297548825575595,2.1446832933358317,"['Li', 'O', 'P', 'V']"
mp-1096089,LiTaPt2,3,False,4.379885676670291,0.8138351651129878,-0.6226299609354712,False,-1.8401291243718407,1.5338928990663672,"['Li', 'Pt', 'Ta']"
mp-865116,LiSmTl2,3,False,1.8074097604203363,1.19064251496937,-0.8682128617659177,False,3.7876944167929354,-0.9497513849442888,"['Li', 'Sm', 'Tl']"
mp-1236149,LiTa4O12,3,False,-0.9633648953104552,-0.5714403378804463,-0.8682128617659177,False,1.6190807020609796,-0.5210874764483635,"['Li', 'O', 'Ta']"
mp-754034,Li2TlPCO7,5,False,-0.1658037969786787,0.1538398675342903,0.2389753362984533,True,0.1931861719825693,-0.351941605840383,"['C', 'Li', 'O', 'P', 'Tl']"
mp-984635,LiErSn,3,False,1.4731184694577757,0.9130745965559964,-0.8682128617659177,False,2.322311179756648,0.3177920080669658,"['Er', 'Li', 'Sn']"
mp-1374220,Li4CrO5,3,False,1.2706678265845792,0.6544177212493744,-0.8682128617659177,False,-0.4573769248418306,-0.7385600885229968,"['Cr', 'Li', 'O']"
mp-1222777,Li2CePr(MoO4)4,5,False,-0.5544982367302327,-0.264953466873807,-0.7862841851723587,False,0.6647972473162735,-0.2934329237738375,"['Ce', 'Li', 'Mo', 'O', 'Pr']"
mp-849605,LiMnP2O7,4,True,-0.5859423367454674,-0.1070707457213491,-0.5513994090541277,False,-0.4949993450808739,1.7667876277055383,"['Li', 'Mn', 'O', 'P']"
mp-801707,Li2Si4Ni5O14,4,True,2.075628416214846,0.6506080088508457,-0.8682128617659177,False,0.042537126623993,-0.4288764787045241,"['Li', 'Ni', 'O', 'Si']"
mp-776297,Li4Ti5Co3O16,4,True,-0.7743775027324227,-0.19580017723669,-0.5047474601508534,False,0.2725074250435987,-0.4309596498911759,"['Co', 'Li', 'O', 'Ti']"
mp-26061,LiMn2(PO4)3,4,True,-0.4385893819005911,-0.1220289501917074,-0.0414780343218148,False,-0.448962988351275,0.0130054833276323,"['Li', 'Mn', 'O', 'P']"
mp-1177360,Li4Mn3V3(FeO8)2,5,True,-0.2176735252088959,-0.1608965742126543,-0.2339088598415642,False,0.2027723254848734,-0.3945949292470128,"['Fe', 'Li', 'Mn', 'O', 'V']"
mp-1282790,Li2Mn3SnO8,4,True,-0.1261164973962118,-0.0467365356795532,-0.4574184147468045,False,0.463065886854259,-0.3198205608781204,"['Li', 'Mn', 'O', 'Sn']"
mp-757511,Li2Ni(PO3)4,4,True,-0.5340013704121105,0.0138365985310307,2.185966324271851,True,-0.7642409435582259,1.6187223809993427,"['Li', 'Ni', 'O', 'P']"
mp-1173916,Li2MnCoO4,4,True,0.0795050482942509,0.112425424237585,-0.401896501683401,False,0.3404314869969039,-0.8063955272252209,"['Co', 'Li', 'Mn', 'O']"
mp-1080712,LiSmSn2,3,False,1.5961717719360653,0.8972876999030086,-0.8682128617659177,False,1.99961156906695,-0.6764411185154696,"['Li', 'Sm', 'Sn']"
mp-759644,Li3V3P8O29,4,False,-0.601341824445821,-0.1029166554276805,-0.2025592918557641,False,-0.8349505315104166,2.155181691375409,"['Li', 'O', 'P', 'V']"
mp-1177575,Li3Nb(FeO2)4,4,True,-0.0936891555158526,-0.105192332122463,0.4684433404104979,True,0.6300097698746914,-0.7628287357210176,"['Fe', 'Li', 'Nb', 'O']"
mp-777320,Li3Mn4F19,3,True,-0.6800945811776289,0.4807154944244923,0.0834462700708444,True,-0.5495768976300036,0.7315008533933909,"['F', 'Li', 'Mn']"
mp-778460,Li3Bi(PO4)2,4,False,-0.630838783531677,0.1282432003232774,2.0505470241172064,True,0.3984881075048512,2.4668328354811546,"['Bi', 'Li', 'O', 'P']"
mp-26749,LiFeP2O7,4,True,-0.5674145436240716,-0.083931674393287,0.879034658479379,True,-0.4196630556103756,0.2157168509482667,"['Fe', 'Li', 'O', 'P']"
mp-1222485,LiTiFeO4,4,True,-0.6657332015788824,-0.2146524419673851,0.4756205633186942,True,0.2002285239126174,-0.4109491249003947,"['Fe', 'Li', 'O', 'Ti']"
mp-1236143,LiNb2(PO5)2,4,False,-0.8949725056731593,-0.2915798811033713,-0.8682128617659177,False,0.0039049286912208,-0.7087567339725784,"['Li', 'Nb', 'O', 'P']"
mp-757932,Li4Mn7O16,3,True,0.0395304522114786,-0.0728222806404569,-0.1600376316072065,False,0.1037386911898426,-0.4175815039863197,"['Li', 'Mn', 'O']"
mp-1097197,LiZrCu2,3,False,4.608047169534693,1.4008491535441676,-0.8682128617659177,False,-2.039770114840083,0.3015408621612879,"['Cu', 'Li', 'Zr']"
mp-761656,Li4Co(PO4)2,4,True,-0.6106915480800996,0.1168374163835968,1.0692987751966545,True,-0.5462953804491772,-0.333856087869258,"['Co', 'Li', 'O', 'P']"
mp-764994,Li3V3P8O29,4,False,-0.6028311765335522,-0.1033094399336646,-0.1816370099818716,False,-0.8501680697571209,2.186308814893852,"['Li', 'O', 'P', 'V']"
mp-1667092,Li7Mn4CoO12,4,True,-0.0707842450922335,0.111426585037843,-0.8682128617659177,False,0.1359525090856428,0.0214344633126661,"['Co', 'Li', 'Mn', 'O']"
mp-1211129,LiP4(RuO7)2,4,False,-0.3117101270337202,-0.0824928672860315,-0.8472228702419485,False,-0.1333516592274804,-0.4860564016680896,"['Li', 'O', 'P', 'Ru']"
mp-770232,Li24Mn7Cr5O36,4,True,-0.249725340201271,0.1175022836083936,-0.1361361251299112,False,-0.0619797548540145,0.5802838706186826,"['Cr', 'Li', 'Mn', 'O']"
mp-1111446,Cs2LiErCl6,4,False,-0.5669983261737127,0.8268031329794913,2.6486940729002697,True,-0.0680459988352952,-0.3803267395294596,"['Cl', 'Cs', 'Er', 'Li']"
mp-1290409,Li4Mn3SbO8,4,True,-0.1494807142478227,0.0697310488368852,-0.3400775911628053,False,0.4362920164284783,-0.2745889508305358,"['Li', 'Mn', 'O', 'Sb']"
mp-756362,LiCrO2,3,False,-0.4764884430770741,-0.1433979489667799,1.3670858162367168,True,0.372556898181295,-0.8332048565783604,"['Cr', 'Li', 'O']"
mp-865658,LiPrGe2,3,False,1.4408914291287571,0.761762442673966,-0.8682128617659177,False,1.3750531473937402,-0.2697272015739981,"['Ge', 'Li', 'Pr']"
mp-705468,Li3Mn3(PO4)4,4,True,-0.5905210805492812,-0.1128283455820724,-0.4350065205712116,False,-0.6120182043854409,0.6744997389973797,"['Li', 'Mn', 'O', 'P']"
mp-15820,LiHoGe,3,False,1.3928090562383977,0.8296661218468729,-0.8682128617659177,False,2.03641671170612,-0.7204471677725394,"['Ge', 'Ho', 'Li']"
mp-757788,LiNb(PO3)4,4,False,-0.6345726219230581,-0.1284643369577671,-0.2884151281538085,False,-0.5012222171275103,0.0903186958222261,"['Li', 'Nb', 'O', 'P']"
mp-31442,Li2InRh,3,False,1.7125494392037672,-1.7443940906786428,-0.8682128617659177,False,1.676643662670895,-1.0606407754470524,"['In', 'Li', 'Rh']"
mp-756606,Li4Fe5Cu3O16,4,True,0.5858864427403315,0.2274977899919775,-0.8682128617659177,False,0.4184058802089461,-0.4123100981131802,"['Cu', 'Fe', 'Li', 'O']"
mp-1222756,Li(TmGe2)2,3,False,1.5590172574010115,0.7326996080849415,-0.8682128617659177,False,2.685182822973789,-0.8457358749723685,"['Ge', 'Li', 'Tm']"
mp-559300,KLi(PO3)2,4,False,-0.7934440037681827,0.0656467453645082,2.670564289875245,True,-0.8441022174306796,1.9060625227800896,"['K', 'Li', 'O', 'P']"
mp-752971,Li4VO4F,4,False,-0.6556465378075376,0.2509412676511125,1.7807240685590775,True,-1.0106554931495189,-0.5457699735251055,"['F', 'Li', 'O', 'V']"
mp-867174,SrLi2Pb,3,False,1.7369727175483591,1.3278415992168713,-0.8682128617659177,False,1.1196106662440843,-0.9652327669788884,"['Li', 'Pb', 'Sr']"
mp-767687,Li4Si2NiO7,4,True,-0.7147971202214372,0.1295044440422894,1.6583727308693563,True,-0.5584710326044087,-0.4006267914810681,"['Li', 'Ni', 'O', 'Si']"
mp-753597,Li2VF6,3,False,-1.2510579834884743,0.4226805252658474,0.506089905853489,True,-0.5986877071807711,-0.6376041649859713,"['F', 'Li', 'V']"
mp-861717,Li8MnFe7(PO4)8,5,True,-0.5758394854471159,-0.0917343625888144,1.7593955287847214,True,-0.1988159013453493,0.5130835657835529,"['Fe', 'Li', 'Mn', 'O', 'P']"
mp-865890,Li2CaIn,3,False,1.781976330644928,-0.4858530714336238,-0.8682128617659177,False,-0.3781639987646185,-0.9840595213317196,"['Ca', 'In', 'Li']"
mp-982975,LiBeO3,3,False,0.6902003938838815,0.5316264475092565,-0.8682128617659177,False,-0.863949002161243,-1.113443882378929,"['Be', 'Li', 'O']"
mp-1100486,Li9Mn7O16,3,True,-0.1627467811172442,0.0407272059039845,-0.8682128617659177,False,0.1127257084772539,-0.3779292850927622,"['Li', 'Mn', 'O']"
mp-757949,LiFe2C2O7,4,True,0.2432625592786767,-0.1365739270677465,0.1812190047824975,True,-0.3550251493807636,0.2788365492978893,"['C', 'Fe', 'Li', 'O']"
mp-758886,LiCuPO4,4,False,-0.1651143351507234,0.201339666857731,-0.8682128617659177,False,-0.5590143843845554,2.02816333603866,"['Cu', 'Li', 'O', 'P']"
mp-777875,LiFeF4,3,True,-0.9268842296182312,0.4222047826264852,1.5771888604266475,True,0.0105427522331041,-0.5313619447515315,"['F', 'Fe', 'Li']"
mp-765498,LiVOF3,4,False,-1.0312932292007786,0.2182597370831569,0.7901995975779326,True,-0.5828944233007255,-0.3662576867288846,"['F', 'Li', 'O', 'V']"
mp-2766181,LiMn2F9,3,True,-0.7513735132353929,-0.1074249155257539,0.6893799286127998,True,-0.4357104744605086,-0.3475432845958501,"['F', 'Li', 'Mn']"
mp-1094581,LiMg2,2,False,2.152895169781545,1.0692262784860682,-0.8682128617659177,False,-1.550607077734528,-0.8662958742247701,"['Li', 'Mg']"
mp-755552,LiYS2,3,False,-0.0418078178644991,0.3167444656177445,-0.6131506099246453,False,-0.34154423665107,-1.0013782096635846,"['Li', 'S', 'Y']"
mp-1174829,Li6Mn3CoO10,4,True,-0.0214477611196844,0.1468801884088674,-0.6354947944501623,False,0.0801069419287727,-0.7110894552819086,"['Co', 'Li', 'Mn', 'O']"
mp-865228,LiScPt2,3,False,1.113003672448849,0.3537179141226354,-0.8682128617659177,False,5.355301662763515,-1.0578209957554636,"['Li', 'Pt', 'Sc']"
mp-1175376,Li9Co7O16,3,True,0.2813915061558012,0.286613822441795,-0.0876560156745485,False,0.404374792899532,-0.4332462643218114,"['Co', 'Li', 'O']"
mp-768636,LiBi2BO5,4,False,-0.0711142556697662,0.19472838879722,0.529855993030629,True,2.414820259109801,0.105844952767987,"['B', 'Bi', 'Li', 'O']"
mp-731921,LiBeNF4,4,False,-0.1084156301777347,0.6131078675165565,1.0802677385091803,True,-1.5723201123542196,0.213214785726093,"['Be', 'F', 'Li', 'N']"
mp-1222686,LiCuRu2(RhO4)2,5,False,0.7383511680436258,0.0989273566690404,-0.8682128617659177,False,1.741032686243093,-0.7804045244856619,"['Cu', 'Li', 'O', 'Rh', 'Ru']"
mp-976281,Li3Pd,2,False,1.8687636594469577,-0.153252243199958,-0.8682128617659177,False,-0.1338738138257133,-1.066290814612785,"['Li', 'Pd']"
mp-779418,Li2MnFe(BO3)2,5,True,-0.4889055895883244,-0.1496407870390741,0.9487755980590208,True,-0.3528180261114237,-0.1567622389762018,"['B', 'Fe', 'Li', 'Mn', 'O']"
mp-1013807,Li3Co2(GeO4)3,4,True,0.2885335225004956,0.262206835670748,-0.8682128617659177,False,0.4093507968443601,1.1740183172337644,"['Co', 'Ge', 'Li', 'O']"
mp-1114414,Rb2LiAuCl6,4,False,0.4616528253842575,1.1314176436595142,-0.8682128617659177,False,-0.0643777494973559,-0.4671294243909086,"['Au', 'Cl', 'Li', 'Rb']"
mp-767407,Li5SbS,3,False,1.1355600763895748,1.0999338094477569,-0.0936821745314302,False,-0.8184764942157574,0.1928342057877467,"['Li', 'S', 'Sb']"
mp-768856,LiVBO4,4,False,-0.6362818572672383,-0.1819236640034541,0.2340325318428087,True,-0.5545079685205385,0.068558249717137,"['B', 'Li', 'O', 'V']"
mp-753737,Li3CuS2,3,False,0.8863653604959506,0.8971054511869141,0.75031861368239,True,-0.5769988385175256,-0.2518809113325706,"['Cu', 'Li', 'S']"
mp-740717,LiH4SNO4,5,False,0.5480451015980854,0.4235724564648908,2.8096399111340644,True,-1.1921152921975782,1.1206216696300988,"['H', 'Li', 'N', 'O', 'S']"
mp-1175988,Li9Mn2Co5O16,4,True,0.2671826140887676,0.2460794712104054,-0.702595057676788,False,0.3138506073208708,-0.4165157072508044,"['Co', 'Li', 'Mn', 'O']"
mp-757702,Li4Ti2Nb3Cr3O16,5,False,-0.8081167938506922,-0.351599203400549,-0.8682128617659177,False,0.4259499741906163,-0.3482195303683965,"['Cr', 'Li', 'Nb', 'O', 'Ti']"
mp-1569720,Li2Si2NiO6,4,True,-0.7345724310611805,0.0225768012077419,1.4513843305829823,True,-0.564559867995425,-0.4965994501290057,"['Li', 'Ni', 'O', 'Si']"
mp-1228109,Ba8Li13GaSb12,4,False,1.187356877729237,1.0604407677636711,-0.8682128617659177,False,0.638843207650297,1.5334809414264337,"['Ba', 'Ga', 'Li', 'Sb']"
mp-758179,LiCu2PO4,4,False,0.1447074946647452,0.2961103203914599,-0.3731199004005385,False,0.3904462857156092,-0.7314082833950472,"['Cu', 'Li', 'O', 'P']"
mp-17125,CsNa3Li12(GeO4)4,5,False,-0.2744480171538436,0.4548904702357448,1.7932503538233824,True,-0.3178661514088863,-0.0204818542751141,"['Cs', 'Ge', 'Li', 'Na', 'O']"
mp-1175563,Li9Mn2Co5O16,4,True,0.1699787581928507,0.2204440497191807,-0.8682128617659177,False,0.3071371601867159,-0.4145570758894332,"['Co', 'Li', 'Mn', 'O']"
mp-13843,Li2TeO4,3,False,0.0265510178089421,0.4368543504135269,0.7702252508051225,True,0.5346251358256211,-0.3718545335953474,"['Li', 'O', 'Te']"
mp-1235151,BaLiV2Ni3(HO5)2,6,True,0.10355734028115,0.1060724693565351,-0.0475719028287744,False,0.3144410893648743,-0.5743446742401436,"['Ba', 'H', 'Li', 'Ni', 'O', 'V']"
mp-765358,Li3VOF5,4,False,-1.1645081855273327,0.3806987457668037,1.021631181542219,True,-0.5426103096068687,-0.0455864985192876,"['F', 'Li', 'O', 'V']"
mp-1176871,Li7V3P8O29,4,False,-0.7789823392757079,-0.0706837326808701,-0.8080866924972564,False,-0.7771201545339403,2.1447314073613555,"['Li', 'O', 'P', 'V']"
mp-1174670,Li4MnCo2O7,4,True,0.1279484516393395,0.2108714639306055,-0.1745952063738301,False,0.2725990362046281,-0.5172055110112871,"['Co', 'Li', 'Mn', 'O']"
mp-1174844,Li4MnCo2O7,4,True,0.1579307425246106,0.2187786467993536,-0.7560179715877957,False,0.2384808070406938,-0.5082531923651236,"['Co', 'Li', 'Mn', 'O']"
mp-766106,Li2V2SiGeO10,5,False,-0.5339050193422948,-0.0802375566302882,0.4409532224791051,True,-0.3455126031813602,-0.1216861660083022,"['Ge', 'Li', 'O', 'Si', 'V']"
mp-772899,Li3ZrO3,3,False,-0.644570930127045,0.1618171863476236,-0.8682128617659177,False,-0.3262239185756776,-0.2973102803725632,"['Li', 'O', 'Zr']"
mp-1018781,Li3SmSb2,3,False,1.077369569539268,-2.447392299991189,-0.8682128617659177,False,0.9880662545282451,-0.857729103136135,"['Li', 'Sb', 'Sm']"
mp-1096278,NaLiTl2,3,False,3.1296719591676045,-5.782444461488978,-0.8361861972793451,False,-2.1963895608808954,3.262243965552816,"['Li', 'Na', 'Tl']"
mp-1188639,Li2SO5,3,False,0.2591923873650931,0.4212773792152818,-0.8682128617659177,False,-1.2089679063319068,-0.6166220297759901,"['Li', 'O', 'S']"
mp-20310,LiInSe2,3,False,1.0097709838738649,-2.0820776947869195,0.2309855975893294,True,0.4338242365401346,-0.0186456017031518,"['In', 'Li', 'Se']"
mp-753248,LiVPO5,4,False,-0.6624456141982884,-0.1283292328332897,0.6534938140718192,True,-0.5753416527886428,-0.6779033528999051,"['Li', 'O', 'P', 'V']"
mp-5854,LiGaO2,3,False,-0.4454729412443227,0.3453351527925846,1.2972094573569206,True,0.3000078347553528,-0.7417687336311045,"['Ga', 'Li', 'O']"
mp-771039,NaLi2MnPCO7,6,True,-0.4593044774923328,-0.0019007098300956,1.67800852939178,True,-0.6771867816018722,-0.3737904050877144,"['C', 'Li', 'Mn', 'Na', 'O', 'P']"
mp-759370,Li8Fe3Ni7O20,4,True,0.5035265805395479,0.2963895642299505,-0.8682128617659177,False,0.4744975998603853,-0.2124804502021651,"['Fe', 'Li', 'Ni', 'O']"
mp-26715,LiCoP2O7,4,True,-0.3960395322790732,-0.0034795207320283,-0.8682128617659177,False,-0.0928826050149257,0.0354912192020361,"['Co', 'Li', 'O', 'P']"
mp-1639391,Li7Mn4CoO12,4,True,-0.1054622828074474,0.1022810001726704,-0.3612030019869298,False,0.1532385823776562,0.0132562545748622,"['Co', 'Li', 'Mn', 'O']"
mp-1190102,LiY(BH4)4,4,False,1.7144986129630375,0.8110941416436654,3.019675245673917,True,-1.8192501957118377,-0.5163375352716011,"['B', 'H', 'Li', 'Y']"
mp-1174044,Li3Co2O5,3,True,0.3226274440811009,0.3259115557027844,-0.6189736398312958,False,0.2092077155958603,-0.7219761981185665,"['Co', 'Li', 'O']"
mp-755244,LiVF4,3,False,-1.376243142456687,0.2740098539691344,0.6277641470424369,True,-0.1805987779751254,-0.8692578753247194,"['F', 'Li', 'V']"
mp-1094574,LiMg2,2,False,2.15263201511479,1.0691568771157474,-0.8682128617659177,False,-1.560600703974993,-0.8623779822380404,"['Li', 'Mg']"
mp-755835,LiBiB2O5,4,False,-0.4560046731560479,0.0032967988142624,1.3838778094558926,True,1.46139082600651,-0.7250190566083432,"['B', 'Bi', 'Li', 'O']"
mp-30821,LiAl2Rh,3,False,1.3336835021643128,-1.0100576792025389,-0.8682128617659177,False,0.8753611012120803,-1.082877543122427,"['Al', 'Li', 'Rh']"
mp-1185422,LiZn2Ag,3,False,1.9910239350805472,-0.9510641245807404,-0.8682128617659177,False,2.1180534310453547,-1.0678528274238697,"['Ag', 'Li', 'Zn']"
mp-774309,Li2MnV(P2O7)2,5,True,-0.7458932296283939,-0.1482241999433167,-0.6270987978405744,False,-0.5833707285493562,0.3199511828040901,"['Li', 'Mn', 'O', 'P', 'V']"
mp-759831,Li4CrNi5(PO4)6,5,True,-0.3235808885591257,0.0212969571080403,-0.8682128617659177,False,-0.1586985410211394,0.0490239829926589,"['Cr', 'Li', 'Ni', 'O', 'P']"
mp-758264,Li3Cr4P2O8F9,5,False,-0.911680703366281,0.0486944280878526,0.8784252716286833,True,-0.6258387575262825,0.7710279856259153,"['Cr', 'F', 'Li', 'O', 'P']"
mp-1018766,Li3LaAs2,3,False,0.854976786140802,-1.442859949394343,-0.5281072894275288,False,0.4757728910477135,-0.9054301520158105,"['As', 'La', 'Li']"
mp-1224471,Li14Ce5Si11N19O7F2,6,False,0.1590744545291886,0.0150161944235286,-0.8682128617659177,False,0.0132545909724287,2.6354338815343152,"['Ce', 'F', 'Li', 'N', 'O', 'Si']"
mp-757600,Li3MnF6,3,True,-1.0598660060678229,0.4940634765412779,0.2181207640746381,True,-0.5448513732722303,-0.9282431286163324,"['F', 'Li', 'Mn']"
mp-764318,Li2VFe(P2O7)2,5,True,-0.7198944363481209,-0.1322411960370604,0.3091902434286364,True,-0.5766339607833284,1.0953707687537408,"['Fe', 'Li', 'O', 'P', 'V']"
mp-800159,Li5Mn3(FeO5)2,4,True,3.5969548113159404,0.9865808880741564,-0.8682128617659177,False,0.2379468842805,-0.6878685093847149,"['Fe', 'Li', 'Mn', 'O']"
mp-8481,LiPrGe,3,False,1.4367328136819677,0.8221204422713576,-0.8682128617659177,False,1.0554809912943082,-0.6428413524738829,"['Ge', 'Li', 'Pr']"
mp-1147621,Li3InBr6,3,False,0.4360585128065806,1.122564365026639,1.0594131662853643,True,0.1947106490641978,0.2213938332203114,"['Br', 'In', 'Li']"
mp-9562,LiBeAs,3,False,1.6454061406737177,0.9747363514804886,-0.1859027179367428,False,-0.1657371476927297,-0.9893347231153846,"['As', 'Be', 'Li']"
mp-760339,Li2VF4,3,False,-1.1635067237679293,0.3798174806019483,0.8113250084020571,True,-0.5142518707836098,-1.0116915378909084,"['F', 'Li', 'V']"
mp-1191292,LiAlSi2HO7,5,False,-0.8598682293115213,-0.0066419245089569,-0.6690787808885135,False,-1.030704338982804,-0.3567269254580431,"['Al', 'H', 'Li', 'O', 'Si']"
mp-774495,Li3V6O13,3,False,-0.4848383467616936,-0.2317909072183452,-0.7219600175989026,False,-0.0813699222686199,0.1743563765672704,"['Li', 'O', 'V']"
mp-1176557,LiV4OF11,4,False,-1.2321853747188638,0.1172923190387528,-0.8682128617659177,False,-0.2569782255924959,0.0030924673057144,"['F', 'Li', 'O', 'V']"
mp-756266,Li4Cr3GaO8,4,False,-0.4494669442744939,-0.0161332532374335,1.2692453718749863,True,0.3506351821576829,-0.3822800023636183,"['Cr', 'Ga', 'Li', 'O']"
mp-771968,LiCo8O9,3,True,0.7597903208755191,0.0706567830229314,-0.8682128617659177,False,1.4694227913659588,-0.7362791419263169,"['Co', 'Li', 'O']"
mp-976595,LiLu2In,3,False,1.83234429677956,-5.313302147806235,-0.8682128617659177,False,2.867151801739113,-0.9566851889348664,"['In', 'Li', 'Lu']"
mp-1185447,LiYbPd2,3,False,1.3403561950164016,-4.261567701925656,-0.8682128617659177,False,3.843991879814476,-1.039789831608838,"['Li', 'Pd', 'Yb']"