material_id,formula_pretty,n_elements,contains_transition_metal,formation_energy_per_atom,energy_per_atom,band_gap,is_semiconductor,density,volume,elements
mp-1174291,Li4Co3O7,3,True,0.3018388285656083,0.2987736590207794,-0.8682128617659177,False,0.3953392864066086,-0.5388465577656613,"['Co', 'Li', 'O']"
mp-777917,Li4V5Cu3O16,4,False,-0.0869716209146575,0.0182393354149939,-0.8682128617659177,False,0.2753688049469297,-0.3981344846120593,"['Cu', 'Li', 'O', 'V']"
mp-26679,Li3Ni2(PO4)3,4,True,-0.3149789692314003,0.1078195904557978,-0.8682128617659177,False,-0.2275734838309098,-0.048239965515521,"['Li', 'Ni', 'O', 'P']"
mp-752636,LiSbO3,3,False,-0.0609712897402437,0.3109134835813156,0.1133062257549434,True,1.085140062281197,-0.6072933872697337,"['Li', 'O', 'Sb']"
mp-1177229,Li4V3P8O29,4,False,-0.6603793785250125,-0.097368107978429,-0.4817261791245632,False,-0.8243853534219658,2.1603358253280405,"['Li', 'O', 'P', 'V']"
mp-1222424,Li3Tl2Cd,3,False,1.869395255322542,-4.429999368083943,-0.8682128617659177,False,2.6413550783551787,-0.90055328968742,"['Cd', 'Li', 'Tl']"
mp-1177679,Li3Fe2(SiO4)2,4,True,-0.5990828742503915,-0.0332485260825582,0.219745795676493,True,-0.5511339771701617,-0.2004157157157083,"['Fe', 'Li', 'O', 'Si']"
mp-1235205,Sr2LiLaTaO6,5,False,-1.2200408998426138,-0.1489269385385635,-0.8682128617659177,False,1.2807954351404047,-0.7319295869618009,"['La', 'Li', 'O', 'Sr', 'Ta']"
mp-777677,LiFeF4,3,True,-0.8858496915784806,0.4330267574200889,1.226046615125655,True,-0.6177375934576549,-0.2965799576710439,"['F', 'Fe', 'Li']"
mp-772420,Li2Co3SnO8,4,True,0.3381173337220745,0.2018222000273477,-0.8682128617659177,False,0.9996502938622928,-0.4383411358050153,"['Co', 'Li', 'O', 'Sn']"
mp-16349,LiNi2Ge,3,True,1.7728238420117424,0.6939448138627468,-0.8682128617659177,False,2.437189958534152,-1.1103998990984627,"['Ge', 'Li', 'Ni']"
mp-6553,LiSc(SiO3)2,4,False,-1.5037401439928728,-0.2731584685908999,2.4628310834380205,True,-0.5261752069457658,-0.5778629102752401,"['Li', 'O', 'Sc', 'Si']"
mp-762390,LiV5O10,3,False,-0.489813402646193,-0.3459623258511637,0.0142470076918213,True,-0.038297330077216,-0.690694378802473,"['Li', 'O', 'V']"
mp-779525,Li3Sb3P8O29,4,False,-0.5045395648621654,0.022914275886835,0.7488290013806886,True,-0.4770155938722281,2.2282851453914767,"['Li', 'O', 'P', 'Sb']"
mp-1175025,Li7Mn2(CoO4)3,4,True,0.0891053014982501,0.2026434224323769,-0.458637188448197,False,0.2010131738643198,-0.6140180992406813,"['Co', 'Li', 'Mn', 'O']"
mp-778254,Li2Mn3(BO3)3,4,True,-0.4951637533235486,-0.2281593778407757,-0.8682128617659177,False,-0.4148107557779915,0.9377794719339564,"['B', 'Li', 'Mn', 'O']"
mp-759789,Li5V3P8O29,4,False,-0.7067613945712948,-0.0894205320704645,-0.1102033291502968,False,-0.7860731101376542,2.1106160242938694,"['Li', 'O', 'P', 'V']"
mp-849471,Li4Mn3Cr2Fe3O16,5,True,-0.0140873366718308,-0.1126391344609149,-0.8682128617659177,False,0.3051004728699457,-0.4172734277119322,"['Cr', 'Fe', 'Li', 'Mn', 'O']"
mp-1045358,Li(CrS2)2,3,False,0.9736340909045946,0.2300400442530075,-0.8682128617659177,False,-0.3570976775934931,-0.525004333631195,"['Cr', 'Li', 'S']"
mp-753616,Li4VCr3O8,4,False,-0.4953956509608318,-0.1380633794345062,0.4722350808148281,True,0.1954810555738966,-0.8079431469020859,"['Cr', 'Li', 'O', 'V']"
mp-1094579,LiMg2,2,False,2.1482147881152267,1.0679919287203103,-0.8682128617659177,False,-1.5427531904166396,-0.8693180388408348,"['Li', 'Mg']"
mp-778901,LiCr3P3(HO6)2,5,False,-0.3860322675961053,-0.1281969916250646,0.4555107972457288,True,-0.3515743049362862,0.0996544621938373,"['Cr', 'H', 'Li', 'O', 'P']"
mp-1177150,Li5Mn3Cu(PO4)4,5,True,-0.5790562816924909,-0.034272910084555,0.0958371360349943,True,-0.2979152368307827,-0.3053368166022097,"['Cu', 'Li', 'Mn', 'O', 'P']"
mp-849951,Li2Fe4OF8,4,True,-0.6214803535616988,0.25378584512228,1.176889409169519,True,0.0255260523788798,-0.2123090598041825,"['F', 'Fe', 'Li', 'O']"
mp-19308,Li2NiO2,3,True,0.2775884207329748,0.4807406345194991,-0.2509716916610494,False,0.3043718524100036,-0.9996680048200168,"['Li', 'Ni', 'O']"
mp-770834,Li5FeO4,3,True,-0.0243776563123914,0.435379576427056,1.0481056547224523,True,-0.8240326832677448,-0.0612316747293908,"['Fe', 'Li', 'O']"
mp-768970,Li2BiO3,3,False,0.2010096200918074,0.5012098880577539,-0.8682128617659177,False,1.2961773098400085,-0.3247466497600804,"['Bi', 'Li', 'O']"
mp-25394,Li2MnPCO7,5,True,-0.4069747522962578,-0.0739520868696759,-0.1861058468869748,False,-0.7317156599701378,0.3776244073302211,"['C', 'Li', 'Mn', 'O', 'P']"
mp-777575,LiV3OF11,4,False,-1.0756304890534791,0.254778643660667,-0.8596814458561758,False,-0.5824151565755864,0.0431080725168278,"['F', 'Li', 'O', 'V']"
mp-757113,Li2Si3NiO8,4,True,-0.8363015790880333,-0.0383999664942197,1.7524214348267573,True,-0.6631251695380008,-0.2481682979895231,"['Li', 'Ni', 'O', 'Si']"
mp-8482,LiYbGe,3,False,1.2811408957993418,-3.228815285816065,-0.8682128617659177,False,2.3698935336982654,-0.7398347961966598,"['Ge', 'Li', 'Yb']"
mp-1100595,Li9Mn2Co5O16,4,True,0.1771694752540427,0.2223404463280266,-0.8682128617659177,False,0.2674519007452385,-0.402785521651633,"['Co', 'Li', 'Mn', 'O']"
mp-757479,Li2Sn(PO3)6,4,False,-0.563458924118671,-0.0002280869644524,0.74930296893123,True,-0.6517977607959501,-0.1906952445055595,"['Li', 'O', 'P', 'Sn']"
mp-772300,Li4Cr3P4O15,4,False,-0.6503752159448547,-0.1111384223189134,0.904019519357911,True,-0.5381301616450522,2.3273089460257346,"['Cr', 'Li', 'O', 'P']"
mp-7137,LiTbO2,3,False,-1.426771502579446,-0.0302287374493836,2.210341798299687,True,1.8807433405074976,-0.659756042776542,"['Li', 'O', 'Tb']"
mp-756730,Li2V2Si4O11,4,False,-1.0225500111629733,-0.2292202413964547,0.6084668967703999,True,-0.4661906893905355,0.0309972706981436,"['Li', 'O', 'Si', 'V']"
mp-1004373,LiMnO2,3,True,-0.1851342423342156,-0.0309416081470058,-0.1332923198266636,False,0.3696418381138275,-0.8196808371178821,"['Li', 'Mn', 'O']"
mp-757800,LiCuCO3,4,False,0.3665593973132973,0.180787310677735,0.2152092491213133,True,-0.1220537168807132,0.3402631005678223,"['C', 'Cu', 'Li', 'O']"
mp-976414,Li3Zn,2,False,2.07815893836032,0.9211038660543612,-0.8682128617659177,False,-1.011180253488201,-1.0534689438345757,"['Li', 'Zn']"
mp-1175403,Li9Mn2Co5O16,4,True,0.1553272471218186,0.2165800295285471,-0.4375117776240725,False,0.3401259519880235,-0.4240927180545704,"['Co', 'Li', 'Mn', 'O']"
mp-1235140,LiCo6(OF5)2,4,True,-0.0837683176525888,0.3905253124189647,-0.205064548908625,False,0.4201548356908463,-0.6001821952602452,"['Co', 'F', 'Li', 'O']"
mp-831073,LiFePH2O5,5,True,-0.1295640067392977,0.1314742600932886,1.537917263381801,True,-0.8146374131574319,0.0929803821806789,"['Fe', 'H', 'Li', 'O', 'P']"
mp-771140,Li5Mn5(SnO6)2,4,True,-0.1491555921053076,0.0154416026736615,-0.8014511467896781,False,0.7012762304944082,-0.4998742654662406,"['Li', 'Mn', 'O', 'Sn']"
mp-1020027,Li4P2O7,3,False,-0.8267762961222261,0.1355160180897772,3.018795020222913,True,-0.9883672547541018,0.4638896533030481,"['Li', 'O', 'P']"
mp-1235218,LiCr4In4O12,4,False,-0.0111516144867231,0.0030972989929735,-0.8682128617659177,False,1.5760019220150514,-0.557923311261571,"['Cr', 'In', 'Li', 'O']"
mp-1314950,Li2Ni3SnO8,4,True,0.5615816068113263,0.3448955736169055,-0.5008880100964453,False,0.7538578650169463,-0.3795078867007463,"['Li', 'Ni', 'O', 'Sn']"
mp-1174173,Li4Mn3CoO8,4,True,-0.0548909006528043,0.0401943277226716,-0.2977590598644797,False,0.2614200719905901,-0.7987086473586724,"['Co', 'Li', 'Mn', 'O']"
mp-777348,Li2Mn3F8,3,True,-1.0646135996457575,0.2175898239598191,1.0921169272727118,True,-0.162532714063135,-0.3339768962064649,"['F', 'Li', 'Mn']"
mp-755351,Li2Fe3CuO8,4,True,0.5210867185199617,0.1651160694753582,-0.8682128617659177,False,0.2468842326423591,-0.8040133990138439,"['Cu', 'Fe', 'Li', 'O']"
mp-1100728,Li9Mn2Co5O16,4,True,0.2162645586690509,0.2326509317747304,-0.8682128617659177,False,0.286447250320271,-0.4084616766834521,"['Co', 'Li', 'Mn', 'O']"
mp-777610,Li4Cr7(PO4)6,4,False,-0.5469300815452545,-0.2080277270535393,0.655118845673675,True,-0.4466412973675551,0.257517802155397,"['Cr', 'Li', 'O', 'P']"
mp-773516,Li3NiO3,3,True,0.2835369862757788,0.5213002160634639,0.3017421819201309,True,-0.4836075137241944,-0.430299077800628,"['Li', 'Ni', 'O']"
mp-2900776,LiCu4(PO4)3,4,False,0.1843949340351135,-0.5076022128102307,-0.4462463224840463,False,0.3518358430585113,1.2110148783517125,"['Cu', 'Li', 'O', 'P']"
mp-1177755,Li3Co2SnO6,4,True,0.1587841179853497,0.2824390337762981,-0.846274935140866,False,0.817756009272677,-0.897372541628063,"['Co', 'Li', 'O', 'Sn']"
mp-1185366,LiMg2In,3,False,2.0308427502131337,1.499197836102947,-0.8682128617659177,False,-0.2096523368172,-1.0004603504841842,"['In', 'Li', 'Mg']"
mp-771258,LiLa6Mn3O14,4,True,-1.326644615696039,-0.3619880486713586,-0.7376009467667641,False,1.7262283996085477,0.6239425867221658,"['La', 'Li', 'Mn', 'O']"
mp-1176911,Li7Mn4(P2O7)4,4,True,-0.7213779685369667,-0.082953254143096,-0.8596137362060985,False,-0.5521939577087689,1.9228849160834909,"['Li', 'Mn', 'O', 'P']"
mp-759954,Li3Mn5F15,3,True,-1.0325737167843234,0.2541404421508593,-0.8682128617659177,False,-0.5939892121862592,0.7066362185721919,"['F', 'Li', 'Mn']"
mp-1175105,Li7Mn2(CoO4)3,4,True,0.1411848561813317,0.216378282259395,-0.8682128617659177,False,0.2090773479148303,-0.6158697372709437,"['Co', 'Li', 'Mn', 'O']"
mp-759148,Li3Mn2P2O8F3,5,True,-0.7054729744523972,0.0598198561178104,-0.8682128617659177,False,-0.5553661212283105,1.2421872904225482,"['F', 'Li', 'Mn', 'O', 'P']"
mp-780319,Li3MnP2H2O9,5,True,-0.428651401060274,0.1107971389882572,-0.2607895909222611,False,-0.6979260966634308,-0.2330716448466349,"['H', 'Li', 'Mn', 'O', 'P']"
mp-1025473,Li2NdGe,3,False,1.7880874028819105,1.0521826545549795,-0.8682128617659177,False,0.76724193483102,-0.7862398800945753,"['Ge', 'Li', 'Nd']"
mp-1175591,Li9Mn2Co5O16,4,True,0.159018324882548,0.2175534717164219,0.0678730505530596,True,0.2552280700381841,-0.3990915673558573,"['Co', 'Li', 'Mn', 'O']"
mp-1174337,Li4Mn3O7,3,True,-0.1858317802947489,0.0440339784297842,-0.2040489041574651,False,0.0908305100022918,-0.4865209942183038,"['Li', 'Mn', 'O']"
mp-778723,Li3MnFe2(BO3)3,5,True,-0.4542060768908176,-0.1349123047653207,1.0075475743261355,True,-0.3390970286160947,-0.1622590367400502,"['B', 'Fe', 'Li', 'Mn', 'O']"
mp-765469,LiNi7O7F,4,True,0.6557013584503445,0.2805384656610811,0.7949392730833443,True,1.5215597225239648,-0.801359872801687,"['F', 'Li', 'Ni', 'O']"
mp-557756,Li4Zn(PO4)2,4,False,-0.7508316854175431,0.1934939512456955,2.3864545981508014,True,-0.6593885176727204,0.7259403880587457,"['Li', 'O', 'P', 'Zn']"
mp-1289239,Li5Ti2V3O10,4,False,-0.798311585093069,-0.1525065649179707,-0.8652336371625157,False,0.0888289984914832,-0.1434346315512007,"['Li', 'O', 'Ti', 'V']"
mp-768443,Na8Li9(FeO4)4,4,True,0.2211540931531605,0.4916832545048726,-0.8320559086246276,False,-0.6836416788735893,0.037293361508364,"['Fe', 'Li', 'Na', 'O']"
mp-865710,LiSnAu2,3,False,1.74378121424172,1.0943755260684735,-0.8682128617659177,False,5.463813948314142,-1.0290838154223412,"['Au', 'Li', 'Sn']"
mp-1235976,LiHo2O3,3,False,-1.2962645384379885,-0.0579068598445896,-0.8682128617659177,False,3.089051231724705,-1.017636648124578,"['Ho', 'Li', 'O']"
mp-550320,Li4CO4,3,False,-0.0887009128091128,0.3336162212659196,2.543744115280421,True,-1.1007872672231456,-1.001762683286442,"['C', 'Li', 'O']"
mp-756974,Li5Ni5(SbO6)2,4,True,0.2680514651657633,0.3270091127011829,-0.8682128617659177,False,1.1037845480629558,-0.5600352358079957,"['Li', 'Ni', 'O', 'Sb']"
mp-779625,Li4Mn2(PO4)3,4,True,-0.6821025801066989,-0.0446437857403278,-0.8682128617659177,False,-0.5504262057935042,1.5302055175884,"['Li', 'Mn', 'O', 'P']"
mp-764727,Li8NiO5F,4,True,-0.0575983165282036,0.600794763351454,0.5410957949434645,True,-0.8528491054438788,-0.4121754110227276,"['F', 'Li', 'Ni', 'O']"
mp-759967,KLiMnP3HO10,6,True,-0.5803268806603264,-0.0022835091467458,1.685524300550363,True,-0.8004683734548449,0.0945413713750639,"['H', 'K', 'Li', 'Mn', 'O', 'P']"
mp-753115,LiMnF4,3,True,-1.0179271841116728,0.3647307629949534,0.6411706577577466,True,-0.4356843939298069,-0.384865670812112,"['F', 'Li', 'Mn']"
mp-850338,Li4VCr3O8,4,False,-0.4963221342671931,-0.1383077194336167,0.3462951316710081,True,0.1868699157860777,-0.3749888329088115,"['Cr', 'Li', 'O', 'V']"
mp-1026802,LiMg14C,3,False,2.441281678713003,1.5666761191680088,-0.8682128617659177,False,-1.3311285422778656,-0.2598594060694701,"['C', 'Li', 'Mg']"
mp-752718,LiFeSiO4,4,True,-0.5228426608374146,-0.0745802793130097,0.711250145587775,True,-0.3087154280758664,0.1166008350620189,"['Fe', 'Li', 'O', 'Si']"
mp-755859,Li4MnFe3(BO3)4,5,True,-0.438156577732759,-0.1278909784318053,1.3676274934373358,True,-0.3646780425207107,-0.51188062140375,"['B', 'Fe', 'Li', 'Mn', 'O']"
mp-1174339,Li4Co3O7,3,True,0.3611939515651328,0.3144272931460095,-0.4798303089223982,False,0.2818708341703451,-0.510416141975833,"['Co', 'Li', 'O']"
mp-777676,LiVF3,3,False,-1.1229381175824482,0.2715154753116183,0.8170803286586293,True,-0.6307877331287369,-0.453330586661012,"['F', 'Li', 'V']"
mp-1176754,LiCu5(PO4)2,4,False,0.3683598253190127,0.3153747025792772,-0.5277010315270649,False,0.6376702755367024,-0.7135124220871972,"['Cu', 'Li', 'O', 'P']"
mp-1306251,Li6Mn(FeO3)2,4,True,0.0902033773351869,0.2618438024563059,0.921894866978324,True,-0.1092385651060008,-0.4246717522587092,"['Fe', 'Li', 'Mn', 'O']"
mp-1265127,Li2Si3Ni2O9,4,True,-0.6377422870084495,-0.011005214571213,1.6753001433886872,True,-0.2237571806909522,1.7899120773467287,"['Li', 'Ni', 'O', 'Si']"
mp-608311,Cs2Li3I5,3,False,0.4845145164051253,1.2265902148380912,1.7224937694925808,True,0.017324553218884,-0.0684639743449246,"['Cs', 'I', 'Li']"
mp-772150,Li2Ti13O22,3,False,-1.391283425827326,-0.5166245671306796,-0.8682128617659177,False,0.1613443102108656,1.135994558114936,"['Li', 'O', 'Ti']"
mp-1174026,Li3Co2O5,3,True,0.3092469072167182,0.3223827275597464,-0.7279861764557837,False,0.2425590572550968,-0.7282324203437089,"['Co', 'Li', 'O']"
mp-761825,LiSb(TeO4)3,4,False,0.4452819027896086,0.3787983712376357,0.2549548137167006,True,1.020207824949733,-0.5986892862414659,"['Li', 'O', 'Sb', 'Te']"
mp-764938,Li3Fe8(BO3)8,4,True,-0.3052708692213793,-0.1994626386665491,0.3046536968734559,True,-0.3650034088272602,0.1653959060404107,"['B', 'Fe', 'Li', 'O']"
mp-775760,LiFeF3,3,True,-0.8379982756099283,0.3822856590587808,1.2951781678546008,True,-0.4361767053497056,0.6155832903709008,"['F', 'Fe', 'Li']"
mp-777730,Li3BiB8O15,4,False,-0.7470330919655712,-0.1334056992220171,1.869965387360988,True,-0.6808990875562717,2.6664158886533293,"['B', 'Bi', 'Li', 'O']"
mp-1100749,Li9Mn2Co5O16,4,True,0.2117734297808262,0.2314664933493213,-0.8682128617659177,False,0.2460903924247204,-0.3963088173699404,"['Co', 'Li', 'Mn', 'O']"
mp-850255,LiFeP3H8O13,5,True,0.0974794103734345,0.246409303547012,1.379273553250635,True,-1.1067050504591764,0.4627017379623993,"['Fe', 'H', 'Li', 'O', 'P']"
mp-1235631,BaSrLiNdTlCu2O7,7,False,-0.1406444817799655,0.3515572242588907,-0.8682128617659177,False,1.94562031273539,-0.647914176465901,"['Ba', 'Cu', 'Li', 'Nd', 'O', 'Sr', 'Tl']"
mp-781672,LiFeH8(SO6)2,5,True,0.4213046878428244,0.3781413216517279,0.7120626613887028,True,-1.0860385885356685,1.7102604362079548,"['Fe', 'H', 'Li', 'O', 'S']"
mp-1176538,LiVF4,3,False,-1.343878508820239,0.2825453283804358,0.6285089531932866,True,-0.6227029601134212,-0.7828034313666005,"['F', 'Li', 'V']"
mp-753538,Li7MnO5F,4,True,-0.2198025671496793,0.4615780277765011,0.0095750418364846,True,-0.743209771236621,0.2335069100623267,"['F', 'Li', 'Mn', 'O']"
mp-7535,Li5AlO4,3,False,-0.5709307612418997,0.4283166237867872,2.378464859441677,True,-0.9740538851108066,-0.7128221628320225,"['Al', 'Li', 'O']"
mp-9615,LiTiS2,3,False,0.3271017455315462,0.3134712163046272,-0.8682128617659177,False,-0.421125039237112,-1.0554078377618887,"['Li', 'S', 'Ti']"
mp-1236462,SrLiEu(CoO3)2,5,True,0.126235129633796,0.0462904032177499,-0.8682128617659177,False,1.4442710966914525,-0.8645560240532655,"['Co', 'Eu', 'Li', 'O', 'Sr']"
mp-760594,LiTi2O4,3,False,-1.3149270412503842,-0.3620492843471137,-0.8682128617659177,False,-0.0420958527422046,-0.8046719794236296,"['Li', 'O', 'Ti']"
mp-754984,Li2Cr3CuO8,4,False,0.0655469962279924,-0.0285767597882908,-0.8682128617659177,False,0.3709956331879787,-0.433016758409306,"['Cr', 'Cu', 'Li', 'O']"
mp-676780,LiMn9Se10,3,True,1.0949627314949422,-2.200480267459337,-0.8682128617659177,False,1.063629045570467,-0.0789363125118391,"['Li', 'Mn', 'Se']"
mp-765150,LiSn4(PO4)3,4,False,-0.3333796707589148,0.0933894895045294,0.9449838576546904,True,0.182644975237034,0.5893657032116266,"['Li', 'O', 'P', 'Sn']"
mp-755747,Li2FeF4,3,True,-0.969168823421734,0.4565152288228417,1.6660916309781706,True,-0.1717611855832025,-0.8381389234370233,"['F', 'Fe', 'Li']"
mp-759362,LiFe(PO3)4,4,True,-0.5592869568526285,-0.0823141947081241,0.8078041065980363,True,-0.6737884327216828,1.4094777178154008,"['Fe', 'Li', 'O', 'P']"
mp-1191883,LiTl,2,False,1.9903512400502084,-5.997505416330242,-0.8682128617659177,False,2.588495600429398,0.3577606607726735,"['Li', 'Tl']"
mp-561430,LiLuF4,3,False,-2.333873104645752,-1.6383076040906943,4.382128824529794,False,1.7999319089751804,-0.8541350992373405,"['F', 'Li', 'Lu']"
mp-1111660,K2LiTlCl6,4,False,0.2283939110146887,1.087330919025392,0.2014641901556169,True,-0.5045273519132438,-0.4343824288422548,"['Cl', 'K', 'Li', 'Tl']"
mp-758191,Li2Fe2(CO3)3,4,True,0.1234641341734396,-0.1147236437939556,1.7366450863587413,True,-0.553980021569314,-0.2352679158583553,"['C', 'Fe', 'Li', 'O']"
mp-752716,Li2VNi(PO4)2,5,True,-0.5767772800726442,-0.0453715846094121,0.2552933619670879,True,-0.1558279061744942,-0.3835128956902544,"['Li', 'Ni', 'O', 'P', 'V']"
mp-759435,LiCu(PO3)3,4,False,-0.4620373885148809,0.0327696648373683,-0.576519689232814,False,-0.3822777547444678,0.6165709884497679,"['Cu', 'Li', 'O', 'P']"
mp-759144,Li9(FeO4)2,3,True,0.0738598136412697,0.4327046159437414,-0.8682128617659177,False,-0.8467777289492497,-0.0719187010865715,"['Fe', 'Li', 'O']"
mp-755827,LiV3O8,3,False,-0.3705985059182167,-0.2211496097168503,0.42389039065962,True,-0.4103728230025196,-0.3584238483340644,"['Li', 'O', 'V']"
mp-1222650,Li2MgAu,3,False,1.6974403349643994,1.353736689567316,-0.8682128617659177,False,1.4899934076346038,-1.049509669807274,"['Au', 'Li', 'Mg']"
mp-758249,Li(FeO2)3,3,True,0.5263601879777863,0.0235335084852088,-0.8682128617659177,False,0.0633887755972325,-0.9008529673225296,"['Fe', 'Li', 'O']"
mp-1093677,LiAg2Hg,3,False,3.078864069257637,-4.501551459384454,-0.8682128617659177,False,-2.0494324437022167,1.715806429260983,"['Ag', 'Hg', 'Li']"
mp-1983876,Li2CoCSO7,5,True,-0.0042930029834178,0.1121752551732981,1.040048206363251,True,-0.7125071720236856,0.3966789180351597,"['C', 'Co', 'Li', 'O', 'S']"
mp-1211571,KLiDy2(MoO4)4,5,False,-0.609564890333723,-0.251994013557721,1.3532730476209431,True,0.887358599087887,0.67129527260559,"['Dy', 'K', 'Li', 'Mo', 'O']"
mp-1174417,Li5Mn2CoO8,4,True,0.0212330665981122,0.1917995905786794,-0.7490438776298309,False,0.0550329285697456,-0.8233886397853569,"['Co', 'Li', 'Mn', 'O']"
mp-773500,LiMnCuO4,4,True,0.3756481642324245,0.1886612495864679,-0.8682128617659177,False,0.4388968859277324,-0.8258835421192824,"['Cu', 'Li', 'Mn', 'O']"
mp-1031116,LiMg6BO7,4,False,-0.507520934004657,0.3795859671661899,0.7450372609763588,True,-0.4515483451132446,-0.8084792066944216,"['B', 'Li', 'Mg', 'O']"
mp-1190556,Li2Al2Si4HO14,5,False,-0.8322930762123045,-0.0138706770670329,-0.5341334482844105,False,-1.0362910982053717,-0.3555789577248154,"['Al', 'H', 'Li', 'O', 'Si']"
mp-777896,Li2V3NiO8,4,True,-0.3470609236926776,-0.1368441162124393,0.2474390425581185,True,0.1929593338022035,-0.3990026868630994,"['Li', 'Ni', 'O', 'V']"
mp-780404,Li4Ti3Fe3(NiO8)2,5,True,-0.2628996371439674,-0.0586198882322486,-0.8682128617659177,False,0.1913188021995796,-0.3919744238903869,"['Fe', 'Li', 'Ni', 'O', 'Ti']"
mp-757054,LiCrPO5,4,False,-0.4845742535522865,-0.1020613720057979,0.132332637426671,True,-0.5167470622671488,-0.1438182447648894,"['Cr', 'Li', 'O', 'P']"