material_id,formula_pretty,n_elements,contains_transition_metal,formation_energy_per_atom,energy_per_atom,band_gap,is_semiconductor,density,volume,elements
mp-561294,SrLi2Nb2O7,4,False,-1.138778461840511,-0.2207407265936865,0.1252908338186295,True,0.4789697712277577,-0.8094404240050487,"['Li', 'Nb', 'O', 'Sr']"
mp-1176882,Li7Fe5O12,3,True,0.1026171935458995,0.1744620219880943,-0.8682128617659177,False,0.0863367914684379,-0.5956510220092817,"['Fe', 'Li', 'O']"
mp-1035569,LiCeMg14O16,4,False,-1.0826141120411468,0.2573083668227218,-0.5242478393731215,False,-0.012239200718129,-0.2831082949161589,"['Ce', 'Li', 'Mg', 'O']"
mp-1239022,Li2CuO2,3,False,0.3789913012653572,0.6050270180692513,-0.8682128617659177,False,0.0166874497126565,-1.099163923091526,"['Cu', 'Li', 'O']"
mp-766995,LiLa3Ti2O9,4,False,-1.84331318696295,-0.437569415762109,1.0137091524831727,True,1.428734398472735,0.9236313925722592,"['La', 'Li', 'O', 'Ti']"
mp-760476,LiU3O8,3,False,-1.741274900140486,-0.7427614495129373,-0.83503513322803,False,3.003669865208956,-0.7440744556372012,"['Li', 'O', 'U']"
mp-11582,LiGaSe2,3,False,1.0015919381669025,-1.2764772989606448,0.5303976702312476,True,0.2746021542142968,-0.1567704515220786,"['Ga', 'Li', 'Se']"
mp-14712,Li7PN4,3,False,1.185502469164211,0.3468927161586854,1.5878869851388642,True,-1.00661971554804,1.0778677190635568,"['Li', 'N', 'P']"
mp-1222757,Li2MgTi9O20,4,False,-1.5528264852699365,-0.4617486147229065,0.9638748500262636,True,-0.1492908299288852,-0.1655686971625787,"['Li', 'Mg', 'O', 'Ti']"
mp-26351,Li3Mo3(PO4)4,4,False,-0.586280543281635,-0.1680756790648241,1.4647908412982922,True,-0.0094602881792273,0.5291760654599029,"['Li', 'Mo', 'O', 'P']"
mp-1173883,Li2CoO3,3,True,0.3368067292053162,0.3801801806388715,-0.744236492474341,False,0.0353698636962155,-0.9335072064650656,"['Co', 'Li', 'O']"
mp-1175245,Li7Mn4CoO12,4,True,-0.0922781729891057,0.1057580249168503,-0.5296646113793072,False,0.1409286412052692,-0.6095399887977878,"['Co', 'Li', 'Mn', 'O']"
mp-770327,Li4Ti3Fe3(CoO8)2,5,True,-0.2841222415703247,-0.0922633889571841,-0.8682128617659177,False,0.1811390903032347,-0.3882006586149828,"['Co', 'Fe', 'Li', 'O', 'Ti']"
mp-697926,LiCd2HSe2O7,5,False,0.4915915429621769,0.578078813432824,1.5383235212822646,True,0.5708069195340153,0.8562633500856908,"['Cd', 'H', 'Li', 'O', 'Se']"
mp-772539,Li2FeP2O7,4,True,-0.5620189825659618,-0.0059109188915244,1.4772494169125192,True,-0.6887076298186957,2.1971841516977126,"['Fe', 'Li', 'O', 'P']"
mp-722455,RbLi2(H2N)3,4,False,1.5840325640461894,0.7431066501434921,0.6298631461948337,True,-1.2393319780904648,-0.4932546418120724,"['H', 'Li', 'N', 'Rb']"
mp-771082,Li4CrFe3O8,4,True,-0.0915189648463601,0.0224892437720053,0.3297739770521415,True,0.2652734800624667,-0.3702393503549583,"['Cr', 'Fe', 'Li', 'O']"
mp-754904,Li3NbV2O6,4,False,-0.5422102477403857,-0.1440465614019856,-0.8682128617659177,False,0.4376793987408934,-0.5596733974410618,"['Li', 'Nb', 'O', 'V']"
mp-11390,LiGaSi,3,False,2.022589529674644,1.0699665770171538,-0.7405801713701655,False,-0.2295164594543686,-1.090735401894578,"['Ga', 'Li', 'Si']"
mp-1246112,Li2VN2,3,False,1.1806131180735735,-0.3039683442937578,-0.8682128617659177,False,-0.1199642339182372,-1.1134907949033346,"['Li', 'N', 'V']"
mp-752760,Li2CoO3,3,True,0.3797959290469089,0.3915176553445022,-0.0698483777042127,False,-0.5318444365801132,-0.4540811826261317,"['Co', 'Li', 'O']"
mp-867530,Li4Mn2Nb3Cr3O16,5,True,-0.6232851366911095,-0.3291023156683433,-0.7953572782827192,False,0.3210911195438702,-0.2992174418150505,"['Cr', 'Li', 'Mn', 'Nb', 'O']"
mp-756796,Li2TiVO4,4,False,-0.8544985241866238,-0.1587042718617622,-0.8682128617659177,False,0.0826566913345509,-0.3633363756700872,"['Li', 'O', 'Ti', 'V']"
mp-567658,Ba2Li3NbN4,4,False,1.154294109589015,0.3048373213146105,0.7423288749732653,True,0.602186132021029,-0.3216830112490345,"['Ba', 'Li', 'N', 'Nb']"
mp-705961,Li5Mn12O24,3,True,-0.0399812795089678,-0.1577584831892516,-0.8682128617659177,False,0.1675931093074847,2.63765917464638,"['Li', 'Mn', 'O']"
mp-1174276,Li4Co3O7,3,True,0.3211084063915836,0.3038555947626673,-0.8682128617659177,False,0.3436399895076244,-0.5261733701413321,"['Co', 'Li', 'O']"
mp-1175203,Li7Mn4CoO12,4,True,-0.0969106025854966,0.1045363214757945,-0.2790034867930607,False,0.1359213150951052,-0.6083499652559188,"['Co', 'Li', 'Mn', 'O']"
mp-764885,LiFe8(BO3)8,4,True,-0.2524095547354983,-0.2393674220677515,-0.0100607566859373,False,-0.3891776719560337,0.1603934951464875,"['B', 'Fe', 'Li', 'O']"
mp-1045443,Li(VS2)2,3,False,0.8305450005574825,0.239484812280238,-0.8682128617659177,False,-0.2775865076763972,-0.5564787333937953,"['Li', 'S', 'V']"
mp-1195085,K2LiC3(SN)3,5,False,1.461415810753265,0.24886965155665,2.144324889474298,True,-1.4072625118271904,1.7826816836563386,"['C', 'K', 'Li', 'N', 'S']"
mp-755265,Li2MnCo3O8,4,True,0.3808158907794484,0.1062995189791742,-0.8682128617659177,False,0.521124921802222,-0.8426081402792955,"['Co', 'Li', 'Mn', 'O']"
mp-776726,LiV2F7,3,False,-1.2221935446596657,0.2451959676501194,0.3087839855281725,True,-0.3806079883136466,0.2196877486545964,"['F', 'Li', 'V']"
mp-559987,LiAl(PO3)4,4,False,-0.9090951597943876,-0.0984137636374038,3.0210971483255413,True,-0.8790768727625309,1.5156981463288253,"['Al', 'Li', 'O', 'P']"
mp-768576,Li3CrBPO7,5,False,-0.7167925948603624,-0.0365290720943431,1.3783933277996296,True,-0.6426531809559862,-0.4591895787307315,"['B', 'Cr', 'Li', 'O', 'P']"
mp-1222533,Li4SiGe3O10,4,False,-0.4685007165810262,0.1835258506961291,-0.8680097328156864,False,-0.5309591578089452,-0.5346926819836453,"['Ge', 'Li', 'O', 'Si']"
mp-1206808,Cs2LiAlF6,4,False,-1.6104575799646357,0.5640978806322995,3.7923777723563177,True,0.1102403139842447,-0.7314377441345902,"['Al', 'Cs', 'F', 'Li']"
mp-757570,LiFe(SiO3)2,4,True,-0.8054661304207505,-0.1510243109316917,1.1425606165803162,True,-0.4384868779210966,1.4261128832412615,"['Fe', 'Li', 'O', 'Si']"
mp-1035434,LiMg14CrO16,4,False,-1.0578899292548505,0.2301345626557191,1.1597588676999566,True,-0.1417281719630732,-0.3502827440144666,"['Cr', 'Li', 'Mg', 'O']"
mp-1201372,LiSmEu2O4,4,False,-1.2750753429826724,-0.5019757632120281,-0.7942739238814821,False,2.40509554903296,0.1333554449069508,"['Eu', 'Li', 'O', 'Sm']"
mp-1101551,Li3Mn3(PO4)4,4,True,-0.5962082687952653,-0.114328218878682,-0.2666803304789881,False,-0.6286540888068655,0.6914204115331357,"['Li', 'Mn', 'O', 'P']"
mp-752814,Li2TiV2O6,4,False,-0.8457109488569429,-0.2555359780429848,0.0055801724819233,True,0.0049421079099087,-0.5755488601707828,"['Li', 'O', 'Ti', 'V']"
mp-1245532,LiSbN2,3,False,2.0135615177346144,0.4221501061861449,0.1168271275589635,True,0.6625554313856226,-0.6040965485798525,"['Li', 'N', 'Sb']"
mp-1235585,LiMn6O5F7,4,True,-0.5199497098006061,-0.0493805445274984,-0.8682128617659177,False,0.1897683181052365,-0.584910826941881,"['F', 'Li', 'Mn', 'O']"
mp-864763,LiYb2Rh,3,False,1.5158275442713278,-5.284825740157787,-0.8682128617659177,False,3.90356992921779,-1.0100629387439168,"['Li', 'Rh', 'Yb']"
mp-758032,LiV(PO3)4,4,False,-0.6837249742512606,-0.1250274400490581,0.8661021153146106,True,-0.8114833138834151,1.5871618121343474,"['Li', 'O', 'P', 'V']"
mp-759279,Li9Cr4(BO3)8,4,False,-0.5828413672723198,-0.0849010481270104,-0.5210654858194873,False,-0.7479407447618857,0.1114908362643344,"['B', 'Cr', 'Li', 'O']"
mp-755843,LiFe2OF5,4,True,-0.6526701341740958,0.2909469752763784,0.681187060953444,True,-0.0544260465818794,-0.6379541347588431,"['F', 'Fe', 'Li', 'O']"
mp-756929,Li4Fe5Sn3O16,4,True,0.1008366915264715,0.1023628739259376,-0.8682128617659177,False,0.7460229742465792,-0.3323284074597014,"['Fe', 'Li', 'O', 'Sn']"
mp-1101524,LiFe2(PO4)3,4,True,-0.3016419227192224,-0.0636030747387934,-0.8682128617659177,False,-0.568634616790763,1.430476047587608,"['Fe', 'Li', 'O', 'P']"
mp-771027,Li2FeAsCO7,5,True,0.0231454039784519,0.0742363499165873,0.6364986919024115,True,-0.4961612620893645,0.4744906633569255,"['As', 'C', 'Fe', 'Li', 'O']"
mp-1110902,K2LiBiBr6,4,False,0.4077596118587314,1.1274105275170414,1.1071484695898766,True,-0.0474852833512178,-0.2300441360079705,"['Bi', 'Br', 'K', 'Li']"
mp-1295192,LiMn(CO3)2,4,True,-0.0118076184862641,-0.1824984533485269,-0.2554405285661533,False,-0.4555445323178985,-0.1015161266511707,"['C', 'Li', 'Mn', 'O']"
mp-1235270,Li(FeO2)8,3,True,0.7290905705119646,0.0036547541725759,-0.8682128617659177,False,-0.0492671271429211,-0.3125863492017987,"['Fe', 'Li', 'O']"
mp-778158,Li8Mn3Fe5(BO3)8,5,True,-0.4657259174610505,-0.1393447228345352,-0.8682128617659177,False,-0.3383840290073943,0.1954530600195054,"['B', 'Fe', 'Li', 'Mn', 'O']"
mp-776566,Li4Mn3NbCr2(PO4)6,6,True,-0.630557907049889,-0.1926922185110056,-0.5703581110757778,False,-0.3571184564364369,0.1919290473583801,"['Cr', 'Li', 'Mn', 'Nb', 'O', 'P']"
mp-1174098,Li5Mn2CoO8,4,True,-0.0443684720267124,0.1744985989912573,-0.1564490201531078,False,0.1100442245642152,-0.4260508337522952,"['Co', 'Li', 'Mn', 'O']"
mp-26585,Li5Sb2P5O18,4,False,-0.6391845378302071,0.0747393845439213,1.5435371643382183,True,-0.2762150972920287,0.8338553155559922,"['Li', 'O', 'P', 'Sb']"
mp-12718,LiPrSn,3,False,1.624339835748675,0.9309286775528192,-0.8682128617659177,False,1.282728126132087,-1.0126283160349543,"['Li', 'Pr', 'Sn']"
mp-757166,Li3Mn(SbO3)4,4,True,-0.0422404017504214,0.2106299854447914,-0.8682128617659177,False,1.164480041000319,0.0801424520034078,"['Li', 'Mn', 'O', 'Sb']"
mp-757901,LiSnPO4,4,False,-0.4663445837728525,0.1256120149264141,1.4829370275190148,True,-0.0186565501098767,2.172178455067004,"['Li', 'O', 'P', 'Sn']"
mp-676215,Li9Ta11N20,3,False,1.5379946015661945,-3.41295781865388,-0.8682128617659177,False,3.5044603241698566,0.0064565192222412,"['Li', 'N', 'Ta']"
mp-865708,LiSm2Ru,3,False,1.9451999137116036,-4.279050346489668,-0.8682128617659177,False,2.66130159904415,-0.9845450845688104,"['Li', 'Ru', 'Sm']"
mp-759623,LiMnF4,3,True,-0.9798177568707614,0.3747813028743183,0.0109969444881091,True,-0.7519120416023057,0.2721129414773497,"['F', 'Li', 'Mn']"
mp-25969,LiMn4(PO4)3,4,True,-0.6147493537006888,-0.2798095126181411,0.858654053806105,True,-0.0821025581447256,0.1143572154344346,"['Li', 'Mn', 'O', 'P']"
mp-973826,LiHoSn2,3,False,1.7343085841382222,0.9424885010646512,-0.8682128617659177,False,2.107990526540988,-0.9537639730232242,"['Ho', 'Li', 'Sn']"
mp-1211459,KLiErF5,4,False,-2.0237673099352023,0.3820365030593274,4.18929174110958,False,0.6039376043334181,0.0326528910110642,"['Er', 'F', 'K', 'Li']"
mp-1177431,Li4Fe3(NiO4)3,4,True,0.5530552957782384,0.2370158698286149,-0.8682128617659177,False,0.4252774550338845,-0.6222330705634272,"['Fe', 'Li', 'Ni', 'O']"
mp-764679,LiFe2(BO3)2,4,True,-0.3208322876850502,-0.1784793723567223,0.2786531912437634,True,-0.3416185643866441,0.1605264744205124,"['B', 'Fe', 'Li', 'O']"
mp-849740,LiFe(SO4)2,4,True,0.0351613438403002,0.1398603083079778,0.5369655062887478,True,-0.6708521080680397,0.0964392977565026,"['Fe', 'Li', 'O', 'S']"
mp-1177121,Li7Fe4(PO4)6,4,True,-0.5820352286511773,-0.0193877510147632,0.2535329110650776,True,-0.5385603062538196,0.1322992722278734,"['Fe', 'Li', 'O', 'P']"
mp-1235200,LiSm2Cr2O8,4,False,-0.8376629595460486,-0.2497587553330429,-0.3897764743195604,False,0.8629849022818064,-0.7247503313948129,"['Cr', 'Li', 'O', 'Sm']"
mp-1175394,Li9Co7O16,3,True,0.3045681369179938,0.2927261591681437,-0.3524684571269559,False,0.3438937262086211,-0.4161830682320264,"['Co', 'Li', 'O']"
mp-796986,Li5V3(CoO5)2,4,True,3.3197125435725505,0.9556449549017332,-0.8682128617659177,False,0.2212949907182988,-0.6913427501781629,"['Co', 'Li', 'O', 'V']"
mp-26086,LiMo2(PO4)3,4,False,-0.5805590736336519,-0.2137484616850395,-0.1736472712727483,False,-0.24430686007271,1.5026729146490727,"['Li', 'Mo', 'O', 'P']"
mp-760286,LiVCr(P2O7)2,5,False,-0.7355583221066644,-0.1968732545067077,0.0304973237103786,True,-0.5595648106216338,1.7749482693225973,"['Cr', 'Li', 'O', 'P', 'V']"
mp-757380,Li7V3P8O29,4,False,-0.7791282095675802,-0.0707222028257085,-0.2919360299578292,False,-0.7741065316336144,2.138855501752676,"['Li', 'O', 'P', 'V']"
mp-769605,Li4VCr3O8,4,False,-0.4905471778208948,-0.136784699166264,0.1567758211045835,True,0.2010571117106907,-0.3795073063959358,"['Cr', 'Li', 'O', 'V']"
mp-1176296,Li9Mn2Co5O16,4,True,0.1518468323583874,0.2156621451647788,-0.0053210811805248,False,0.277713747395459,-0.4058615573122174,"['Co', 'Li', 'Mn', 'O']"
mp-756529,LiMnPCO7,5,True,-0.2379388503763295,-0.1158730990332077,-0.1551625368016387,False,-0.7734033046548929,-0.4365166693193972,"['C', 'Li', 'Mn', 'O', 'P']"
mp-1175674,Li9Mn2Co5O16,4,True,0.1765928137487923,0.2221883642875707,-0.6235101863864763,False,0.3001768395637778,-0.4125165359095847,"['Co', 'Li', 'Mn', 'O']"
mp-757556,Li7V3P8O29,4,False,-0.7873500106582385,-0.0728905256194229,-0.2510394013111267,False,-0.7829760613796478,2.1562078136882508,"['Li', 'O', 'P', 'V']"
mp-762322,LiTi2(PO4)3,4,False,-1.137996083058364,-0.2656514252947581,0.8094968478499696,True,-0.6420986847949482,0.0938324312003544,"['Li', 'O', 'P', 'Ti']"
mp-1236649,Ba3LiTi3O8,4,False,-1.1238591415577637,-0.1297665982181856,-0.8682128617659177,False,1.2262714314167225,-0.6451091780261676,"['Ba', 'Li', 'O', 'Ti']"
mp-1177935,Li2Mn3CoO8,4,True,0.1078974523563542,-0.0497615493735112,-0.8682128617659177,False,0.276724545779833,0.4460124799263177,"['Co', 'Li', 'Mn', 'O']"
mp-1176263,Li9Mn2Co5O16,4,True,0.2880660687610463,0.2515870321788714,-0.8682128617659177,False,0.2532707013764935,-0.398497027943635,"['Co', 'Li', 'Mn', 'O']"
mp-3666,LiTaO3,3,False,-1.266736409133033,-0.4561092138609256,1.637247320045232,True,2.471518804479492,-0.9342750068304628,"['Li', 'O', 'Ta']"
mp-1204433,LiAlGeO5,4,False,-0.1335874311742714,0.2334994473795584,-0.73035601420849,False,-0.7336046418706361,0.1101897909512747,"['Al', 'Ge', 'Li', 'O']"
mp-1112998,Cs2LiTmCl6,4,False,-0.453642219271504,-2.19726292509042,2.6883719278455804,True,0.0608002360096537,-0.4212437083730505,"['Cl', 'Cs', 'Li', 'Tm']"
mp-753044,Li4NbTe2WO12,5,False,-0.1956409939173368,0.0892669596124511,-0.8682128617659177,False,1.048843743135713,-0.5603673833137661,"['Li', 'Nb', 'O', 'Te', 'W']"
mp-1639240,Li2CoP2O7,4,True,-0.5408949736985988,0.031977797873437,-0.8241338795655812,False,-0.4722773501417931,0.3164573183760265,"['Co', 'Li', 'O', 'P']"
mp-753913,Li2MnO2F,4,True,-0.4712919224392021,0.2156859695464597,-0.22720560448391,False,-0.1533642390133996,-0.5854777277414045,"['F', 'Li', 'Mn', 'O']"
mp-770932,LiSbO3,3,False,-0.1408182461976875,0.2898555701404147,1.0449910108188951,True,0.8896252534710485,-0.9045760974263696,"['Li', 'O', 'Sb']"
mp-1177395,Li4Mn3CoCu2(PO4)6,6,True,-0.3722798616562743,-0.0224771330576337,-0.8682128617659177,False,-0.2812909895695902,0.1275963063108599,"['Co', 'Cu', 'Li', 'Mn', 'O', 'P']"
mp-759656,Li3MnP2HO8,5,True,-0.5870219733238287,0.0550915568836053,2.254623909450255,True,-0.6321012928388531,-0.3264544873674924,"['H', 'Li', 'Mn', 'O', 'P']"
mp-1095586,LiGaH4,3,False,2.00578910670526,0.7306446628574775,2.347724678306573,True,-1.1876459102840202,-0.8463452634367148,"['Ga', 'H', 'Li']"
mp-757077,Li2Cu2Si8O19,4,False,-0.898382727791554,-0.0967800951194543,-0.8682128617659177,False,-0.6128439965413586,-0.1052531485527178,"['Cu', 'Li', 'O', 'Si']"
mp-753558,Li5MnO3F2,4,True,-0.5173345594415624,0.416391470299413,0.1047071001951236,True,-0.6911242316961205,0.0015940753541643,"['F', 'Li', 'Mn', 'O']"
mp-2530,Li2Te,2,False,0.8756045436560059,1.0964225906109355,0.8187053602604852,True,-0.2365071554282054,-1.038429329424929,"['Li', 'Te']"
mp-773042,Li5V3P8O29,4,False,-0.7005813970517327,-0.087790690951833,-0.8682128617659177,False,-0.8000183298642591,2.137940024430031,"['Li', 'O', 'P', 'V']"
mp-761675,Li2Cr3CoO8,4,True,-0.0714006723269671,-0.1275772370537384,-0.4679134105087901,False,0.2237680965213426,-0.8193105616877324,"['Co', 'Cr', 'Li', 'O']"
mp-759175,Li5V3P8O29,4,False,-0.7051765569164578,-0.089002565304615,-0.3736615776011571,False,-0.7908610969240877,2.119947517515273,"['Li', 'O', 'P', 'V']"
mp-770212,Li6Ti2S6O,4,False,0.3097329551355265,0.5174411760481805,0.6314881777966896,True,-1.1675950029468238,2.069310190767317,"['Li', 'O', 'S', 'Ti']"
mp-1177909,Li2MnV(PO4)3,5,True,-0.6748954574904513,-0.130985959758383,-0.2564561733173124,False,-0.56959549904007,0.1005644228407255,"['Li', 'Mn', 'O', 'P', 'V']"
mp-753462,Li4Mn3(OF3)3,4,True,-0.7043883100363421,0.3269293615180089,-0.3149573109841188,False,-0.2336755985938166,-0.6578999172060265,"['F', 'Li', 'Mn', 'O']"
mp-1175975,Li9Mn2Co5O16,4,True,0.155507543209988,0.2166275787350147,-0.4052819841872664,False,0.3113569232272565,-0.4157892696388782,"['Co', 'Li', 'Mn', 'O']"
mp-2074,Li3Sb,2,False,1.3530273413187566,-0.488442901299371,-0.3892347971189418,False,-0.2513924876251941,-1.0355481100892605,"['Li', 'Sb']"
mp-776108,LiNbO3,3,False,-0.985446030279864,-0.2794667160015661,1.0735644831515254,True,0.4252846357407108,0.0549254763469109,"['Li', 'Nb', 'O']"
mp-1174972,Li7Mn2(CoO4)3,4,True,0.095439649558067,0.2043139701785424,-0.4901221757341511,False,0.2184755297984485,-0.6180138652244505,"['Co', 'Li', 'Mn', 'O']"
mp-756067,Li2V3SbO8,4,False,-0.4691800122865388,-0.1348308948999126,0.1897504206922401,True,0.5153990322378781,-0.3546747960266748,"['Li', 'O', 'Sb', 'V']"
mp-1100494,Li9Mn7O16,3,True,-0.1693837688019552,0.0389768434809976,-0.2623469128740395,False,0.1019557278485581,-0.3743810993062241,"['Li', 'Mn', 'O']"
mp-769460,Li9Mn12Ni3O32,4,True,0.0132305947253486,-0.0266238356535804,-0.7609607760434403,False,0.2411785866339756,0.4062939879924271,"['Li', 'Mn', 'Ni', 'O']"
mp-768531,Li3MnV(PO4)3,5,True,-0.7366659934841574,-0.1003825058671229,-0.2704043612332416,False,-0.6205273660964578,0.1602480893552164,"['Li', 'Mn', 'O', 'P', 'V']"
mp-1100540,Li9Mn7O16,3,True,-0.1844691798431688,0.0349983915271578,-0.1800119783800159,False,0.1194525969146601,-0.3801307163941937,"['Li', 'Mn', 'O']"
mp-7594,CsLiF2,3,False,-1.149466468830669,-1.2123107699706164,3.3801614226855805,True,0.3016644929572211,-0.4262255953623883,"['Cs', 'F', 'Li']"
mp-1100753,Li9Mn2Co5O16,4,True,0.2818642239011277,0.2499514292952015,-0.8682128617659177,False,0.2451596275040564,-0.3960243299508162,"['Co', 'Li', 'Mn', 'O']"
mp-1176154,Li9Mn2Co5O16,4,True,0.3281312485056555,0.2621533596193644,-0.8682128617659177,False,0.2356727107378951,-0.3931136572684853,"['Co', 'Li', 'Mn', 'O']"
mp-862335,LiAsRh2,3,False,1.5293798228085766,-2.799401779706705,-0.8682128617659177,False,3.7631444042588496,-1.0910127937920182,"['As', 'Li', 'Rh']"
mp-756948,Li4Cu3SbO8,4,False,0.3829509562978851,0.4855787508544171,-0.8682128617659177,False,0.8848878058681785,-0.7956383265220991,"['Cu', 'Li', 'O', 'Sb']"
mp-1222275,LiTlO2,3,False,0.6162611779153725,0.6729740997841274,-0.8682128617659177,False,2.9775161259986715,-1.095876441173463,"['Li', 'O', 'Tl']"
mp-1174084,Li3MnCoO5,4,True,0.1388917831256516,0.2185959364446192,-0.7524970697837743,False,0.084904672250693,-0.7071233905744547,"['Co', 'Li', 'Mn', 'O']"
mp-1235106,LiNi9O13,3,True,1.202101198544155,0.3639997597310282,-0.8682128617659177,False,1.0732773753785927,-0.5726283449944075,"['Li', 'Ni', 'O']"
mp-772148,Li4Mn5Nb3O16,4,True,-0.5146475598550426,-0.2851866604809351,-0.8682128617659177,False,0.327779943302769,-0.2914506446891395,"['Li', 'Mn', 'Nb', 'O']"
mp-759449,Li3Ag2F5,3,False,-0.3208098718657639,-0.446377279018553,0.2336262739423448,True,0.1697192068169546,0.35006701734507,"['Ag', 'F', 'Li']"
mp-780334,LiMn2(BO3)2,4,True,-0.502801466219645,-0.2629753509615129,-0.6092911598702387,False,-0.4051277061172649,0.191682643711597,"['B', 'Li', 'Mn', 'O']"
mp-1178002,Li2Fe2(CO3)3,4,True,0.0982570066205495,-0.1213714802758061,1.83326675701908,True,-0.5452126280813683,-0.2397450579788973,"['C', 'Fe', 'Li', 'O']"
mp-1038204,LiMg30AlO32,4,False,-1.166094280266483,0.2660130393379888,2.1622679467447883,True,-0.1977901236921103,0.5316012418910875,"['Al', 'Li', 'Mg', 'O']"
mp-29345,LiGaI3,3,False,1.0640818398204537,1.267577226710081,0.6709629037917684,True,0.3864031637968062,0.7888470969452143,"['Ga', 'I', 'Li']"