material_id,formula_pretty,n_elements,contains_transition_metal,formation_energy_per_atom,energy_per_atom,band_gap,is_semiconductor,density,volume,elements
mp-756176,Li2CrS3,3,False,0.8778790581320673,0.5184841643356229,-0.8682128617659177,False,-0.6346557613385231,-0.128617443169999,"['Cr', 'Li', 'S']"
mp-1175222,Li7Mn4CoO12,4,True,-0.0963328348307712,0.1046886952657014,-0.2808316473451485,False,0.1296784444635262,-0.6068599811226113,"['Co', 'Li', 'Mn', 'O']"
mp-1174116,Li5Co3O8,3,True,0.3565613714804371,0.3538093265730656,-0.8682128617659177,False,0.2063528030597115,-0.8370614637558561,"['Co', 'Li', 'O']"
mp-756384,Li3Cr2Fe5O12,4,True,0.1378656582261787,-0.0966442614424145,-0.8682128617659177,False,0.3995467035850114,-0.5807614371916855,"['Cr', 'Fe', 'Li', 'O']"
mp-769928,Li4NbV3O8,4,False,-0.5240391831592885,-0.1331044210149024,-0.8682128617659177,False,0.3425448385384009,-0.7864788127534417,"['Li', 'Nb', 'O', 'V']"
mp-1097187,Li2MgZn,3,False,3.2596601173258763,1.91183783142624,-0.4176051405013392,False,-2.3994477844786504,1.7924135782149215,"['Li', 'Mg', 'Zn']"
mp-768437,Li2Bi(BO3)2,4,False,-0.3959635966476688,0.0955753723017376,-0.8418738078858395,False,0.3966612803139135,0.2654600371925747,"['B', 'Bi', 'Li', 'O']"
mp-772727,NaLi5Mn2P2(CO7)2,6,True,-0.4714020798801001,-0.0114208963360983,1.7324470880539462,True,-0.6753496265990391,0.4326835427012059,"['C', 'Li', 'Mn', 'Na', 'O', 'P']"
mp-774377,Li4Mn3Fe(BO3)4,5,True,-0.5384057790664717,-0.1710612456661633,1.2854956878935433,True,-0.3645604628928546,0.2088814480133265,"['B', 'Fe', 'Li', 'Mn', 'O']"
mp-850913,LiVOF3,4,False,-1.0734056693178398,0.2071534888538601,0.2533974917649222,True,-0.5731704316863167,0.496875069966715,"['F', 'Li', 'O', 'V']"
mp-754749,Li2CoOF3,4,True,-0.572630594296299,0.4907326749605755,-0.3947869884252816,False,-0.3273168438045644,-0.3805648574976339,"['Co', 'F', 'Li', 'O']"
mp-801980,Li3Ni5OF11,4,True,0.956585657866517,0.9114830546216516,0.1389681831342485,True,0.3081024059337747,-0.62405935973261,"['F', 'Li', 'Ni', 'O']"
mp-757010,Li3Fe(NiO2)4,4,True,0.4920620430943395,0.2739848680299167,-0.8682128617659177,False,0.8714914425963827,-0.8211394163949393,"['Fe', 'Li', 'Ni', 'O']"
mp-31560,Li2Co(PO3)4,4,True,-0.5859490691471696,-0.0205293265260182,1.269109952574832,True,-0.8144695224797875,0.233532781240561,"['Co', 'Li', 'O', 'P']"
mp-764801,Li2Cu5F12,3,False,-0.1201810503661662,0.0331137767240767,-0.8682128617659177,False,0.2107531700957804,0.0819265769578437,"['Cu', 'F', 'Li']"
mp-760174,Li7Fe4NiO12,4,True,0.2526437445443126,0.2465476041649227,-0.8682128617659177,False,0.2634112570072913,-0.6333899912678137,"['Fe', 'Li', 'Ni', 'O']"
mp-753986,Li6Mn(OF2)2,4,True,-0.7188067632519258,0.4973363506935552,1.0160112805858017,True,-1.0489838833188287,-0.3391924165722473,"['F', 'Li', 'Mn', 'O']"
mp-773065,Li5V5Cr2O12,4,False,-0.4185582000621001,-0.1873394331016986,-0.6770008099475602,False,0.3094121996975998,-0.5718440468001706,"['Cr', 'Li', 'O', 'V']"
mp-1210887,LiGa2,2,False,2.0750069510931417,-0.3582354010244096,-0.8682128617659177,False,0.2713126763664534,-0.5625401701807888,"['Ga', 'Li']"
mp-1174556,Li4MnCo2O7,4,True,0.1131118128920408,0.2069586203063025,-0.2341119887917961,False,0.3041404756414317,-0.525288541539046,"['Co', 'Li', 'Mn', 'O']"
mp-1180450,LiVTeO5,4,False,0.6029475877441703,0.287798941716669,-0.2051999682087796,False,-0.412272619920264,0.3865386369440414,"['Li', 'O', 'Te', 'V']"
mp-1174351,Li4Mn3O7,3,True,-0.1694264707197026,0.0483605251678135,-0.0584731564912227,False,0.0874798833281779,-0.4855510974921161,"['Li', 'Mn', 'O']"
mp-752665,Li3Ti3VO8,4,False,-1.067403895659882,-0.2530813683863969,-0.8682128617659177,False,-0.0102361145254239,-0.3565321398914781,"['Li', 'O', 'Ti', 'V']"
mp-782652,Li4Ti3Cr3(NiO8)2,5,True,-0.5262697539045682,-0.1648551028192234,-0.2485341442582658,False,0.1915207094558503,-0.4057539704385539,"['Cr', 'Li', 'Ni', 'O', 'Ti']"
mp-758470,LiFe2P5O16,4,True,-0.5050671087644516,-0.1067642753846966,0.933608636441701,True,-0.7981465049252673,0.7474464216570778,"['Fe', 'Li', 'O', 'P']"
mp-1663998,Li2Mn3FeO8,4,True,-0.0063383808911525,-0.1075896861307022,-0.5399564781910601,False,0.3080720086893836,-0.412471787607478,"['Fe', 'Li', 'Mn', 'O']"
mp-1371287,LiFeSi3O8,4,True,3.5008905652043283,0.9836569481309586,-0.8682128617659177,False,-0.5734490374755163,-0.3264814560079392,"['Fe', 'Li', 'O', 'Si']"
mp-1304742,Li4Mn3NbO8,4,True,-0.3942213513525159,-0.103117117007013,-0.2131897069179043,False,0.2734009818907857,-0.28471419784429,"['Li', 'Mn', 'Nb', 'O']"
mp-772109,LiSiBiO4,4,False,-0.5739822962215037,0.1017716275301916,1.2747298535312497,True,1.6671706449355972,-0.2917568071624656,"['Bi', 'Li', 'O', 'Si']"
mp-1316403,Li8CoO5F,4,True,-0.0868661605099186,0.5668992705528048,-0.2223305096783428,False,-0.7297077350945259,-0.4684712229813093,"['Co', 'F', 'Li', 'O']"
mp-777558,Li32Ti3Cr13O48,4,False,-0.440149668151612,0.0693664994501427,-0.1969393908993463,False,-0.1525580984267246,1.2253779806431455,"['Cr', 'Li', 'O', 'Ti']"
mp-1195676,LiCuSO4F,5,False,0.0555610562332847,0.3981782234423577,-0.5764519795827368,False,-0.2632896279174397,-0.1779561017358394,"['Cu', 'F', 'Li', 'O', 'S']"
mp-605860,Ba2LiN,3,False,1.7710691729937913,0.9841427486584176,-0.8682128617659177,False,-0.032790791821103,1.8254647969794573,"['Ba', 'Li', 'N']"
mp-1222909,Li2MgSi5O12,4,False,-1.1701665890506834,-0.1038115631691673,2.624995695373208,True,-0.2755539184601436,0.8910721928632812,"['Li', 'Mg', 'O', 'Si']"
mp-775869,Li4Cr5SbO12,4,False,-0.3433095396060264,-0.1265680861599939,0.0913682991298903,True,0.1850124296999742,0.1943359340541157,"['Cr', 'Li', 'O', 'Sb']"
mp-861948,LiPm2Al,3,False,1.9194743621045467,-2.902044088857425,-0.8682128617659177,False,0.9417133859239228,-0.9370135219913353,"['Al', 'Li', 'Pm']"
mp-705341,Li3Mo4P9O32,4,False,-0.5967086027917256,-0.16717680228858,0.3735144110020924,True,-0.4248619984042026,2.441541138504157,"['Li', 'Mo', 'O', 'P']"
mp-1196213,LiNbO3,3,False,-1.0036054928217482,-0.2842558827689197,1.2508283470539547,True,0.1902629375789526,0.1675073363129848,"['Li', 'Nb', 'O']"
mp-780694,Li2Mn(PO3)4,4,True,-0.7251108563442219,-0.0882088266234569,2.0904957176628263,True,-0.8495896663849449,1.7366120797360949,"['Li', 'Mn', 'O', 'P']"
mp-20657,Li2BPd3,3,False,1.6688315892484993,-1.9381741445612308,-0.8682128617659177,False,2.4070964048936654,-0.3403631075972051,"['B', 'Li', 'Pd']"
mp-1195467,Li2MgB12(H4O7)4,5,False,-0.2719316069055601,0.0976077788481364,3.0925308291571167,True,-1.2265571651636982,0.3427543642450178,"['B', 'H', 'Li', 'Mg', 'O']"
mp-753703,Li3Ni2O2F3,4,True,-0.4156205142868224,0.4738465576443301,0.8403724482852283,True,0.2978193594052382,-0.7188018976434782,"['F', 'Li', 'Ni', 'O']"
mp-1174185,Li4Mn3CoO8,4,True,-0.0397014418803364,0.0442002200225902,-0.8682128617659177,False,0.25756009830318,-0.7980955536199618,"['Co', 'Li', 'Mn', 'O']"
mp-1235990,KLiNi2H3(SeO5)2,6,True,0.7013907119901379,0.4828540025289597,-0.7769402534616876,False,-0.1727381380596055,-0.5730697446059488,"['H', 'K', 'Li', 'Ni', 'O', 'Se']"
mp-1100481,Li9Mn7O16,3,True,-0.1847382013108624,0.0349274429145649,-0.2633625576251993,False,0.1231467846089193,-0.3813348844190558,"['Li', 'Mn', 'O']"
mp-757477,Li4MnV3(PO4)4,5,True,-0.7264040015093938,-0.1541118598517566,0.9559528209672165,True,-0.3049599218171361,-0.3424369843358216,"['Li', 'Mn', 'O', 'P', 'V']"
mp-1110972,Cs2LiPrF6,4,False,-1.7071580078256388,-1.835107130248862,3.870988676096089,True,0.5872317286292553,-0.6914595904648757,"['Cs', 'F', 'Li', 'Pr']"
mp-26575,Li3Fe(PO4)2,4,True,-0.6299987762860227,0.0335452925167589,0.4541566042441822,True,-0.4076454509129826,-0.8311447055418796,"['Fe', 'Li', 'O', 'P']"
mp-765628,Li4Cu3Bi(PO4)4,5,False,-0.2928090150146016,0.1698304784714629,-0.8003000827383644,False,0.3219777983428614,-0.3233872408022092,"['Bi', 'Cu', 'Li', 'O', 'P']"
mp-771192,Li5Fe2Cu5O12,4,True,0.5883418703742798,0.4081253019282495,-0.8682128617659177,False,0.6993084663627173,-0.5821027154767637,"['Cu', 'Fe', 'Li', 'O']"
mp-1175969,Li9Mn2Co5O16,4,True,0.1812484948686805,0.223416199816697,-0.8682128617659177,False,0.3188269682622014,-0.4179615466198888,"['Co', 'Li', 'Mn', 'O']"
mp-1307939,Li4Co3NiO8,4,True,0.3765732910016214,0.2888855779162455,-0.5657538548705207,False,0.5255633231709661,-0.4109337864865509,"['Co', 'Li', 'Ni', 'O']"
mp-10520,LiNdTiO4,4,False,-1.58777387081371,-0.3043793952797175,0.6772599012489594,True,0.8856290792002879,-0.7409828323310889,"['Li', 'Nd', 'O', 'Ti']"
mp-1175537,Li9Mn2Co5O16,4,True,0.2203410987629525,0.2337260313432594,-0.8682128617659177,False,0.2688894310134942,-0.4032177967245581,"['Co', 'Li', 'Mn', 'O']"
mp-673090,LiSb2P5O18,4,False,-0.3850665708882176,0.0276691103522309,-0.8416706789356075,False,-0.1453436244271911,0.6437757146143449,"['Li', 'O', 'P', 'Sb']"
mp-774334,Na5Li3V8O24,4,False,-0.4500381738639132,-0.0586537231100782,1.2566513769606045,True,-0.6315394758181851,0.3462430660567567,"['Li', 'Na', 'O', 'V']"
mp-752856,Li10Fe4S9,3,True,0.9685918206399612,0.6561330599207318,-0.8682128617659177,False,-0.8745441809157504,1.0439133087442076,"['Fe', 'Li', 'S']"
mp-1219572,RbLiMnS2,4,True,0.9488845835792328,0.6093672558567548,-0.8682128617659177,False,-0.1752774429661524,-0.9474547088210892,"['Li', 'Mn', 'Rb', 'S']"
mp-754285,Li5MnO4,3,True,-0.0681293168502073,0.4037629773079353,-0.0294934262581295,False,-0.8244732812450303,-0.6529908016608639,"['Li', 'Mn', 'O']"
mp-934,LiTl,2,False,1.8905024009047335,-6.023838395133517,-0.8682128617659177,False,3.253410489908233,-1.1205022395377076,"['Li', 'Tl']"
mp-766626,Li3VPCO7,5,False,-0.4882872621862876,-0.020460380535691,-0.482741823875723,False,-0.7103881838856793,0.3794722270073519,"['C', 'Li', 'O', 'P', 'V']"
mp-1222446,LiLa2Nb8O24,4,False,-1.2242688350831596,-0.536134260005966,-0.8682128617659177,False,0.5740137969056105,0.2310613195801293,"['La', 'Li', 'Nb', 'O']"
mp-753468,LiNi2OF3,4,True,-0.1975295862195742,0.4852899898025936,0.8216845848638874,True,0.3256500554437303,-0.79153363373994,"['F', 'Li', 'Ni', 'O']"
mp-771089,Li4MnFe5O12,4,True,0.2227606435974001,0.0343545485991101,-0.675578907295937,False,0.1368129971394425,-0.5665448887601949,"['Fe', 'Li', 'Mn', 'O']"
mp-765227,Li6Sn5(P2O7)4,4,False,-0.5322331309898474,0.0811929815114746,0.9451869866049228,True,-0.2763689535316669,2.586603870696517,"['Li', 'O', 'P', 'Sn']"
mp-1078753,LiTl,2,False,2.0842998975548293,-5.972728483239805,-0.8682128617659177,False,2.14009939997996,-0.6548730877422482,"['Li', 'Tl']"
mp-570813,Li2UI6,3,False,0.7692414828859937,0.9597314511544814,-0.8682128617659177,False,0.7521605345300927,0.7554654091171119,"['I', 'Li', 'U']"
mp-1213704,Cs3LiPb4,3,False,1.8997335650702876,1.3331340458467231,-0.355989358930976,False,1.4468951877740828,0.7639846125140942,"['Cs', 'Li', 'Pb']"
mp-756519,Li(ReO3)4,3,False,-0.1647989062131057,-0.4005134001325757,-0.8682128617659177,False,2.453301511623823,-0.6280316775072055,"['Li', 'O', 'Re']"
mp-772545,Li3Ti(Si2O5)3,4,False,-1.2206707291348142,-0.1804473721913601,-0.6494429823660907,False,-0.7868472375508831,2.317338506877141,"['Li', 'O', 'Si', 'Ti']"
mp-698205,LiB(HO2)2,4,False,0.1338266859406854,0.2984692817202447,1.5870744693379364,True,-1.227393388212437,-0.39950737037786,"['B', 'H', 'Li', 'O']"
mp-763347,Li2VO2F,4,False,-0.7479978153805438,0.1464879559373591,-0.6058379677162946,False,-0.2016182348591064,-0.5940544811082473,"['F', 'Li', 'O', 'V']"
mp-1001790,LiO3,2,False,1.4842529196804677,0.7149976962894308,-0.8147222382048334,False,-1.0854263161941111,-1.1143516083697305,"['Li', 'O']"
mp-757990,Li3V3(PO4)4,4,False,-0.765738429883608,-0.1564231592180558,0.3993117876815514,True,-0.4147466556313569,0.4576137450538403,"['Li', 'O', 'P', 'V']"
mp-1235544,SrLiU2O6,4,False,-1.426774195350884,-0.4586371804875754,-0.8682128617659177,False,3.2903405794562595,-0.8693990114638628,"['Li', 'O', 'Sr', 'U']"
mp-757742,Li2Fe(CoO3)2,4,True,0.4237003894384063,0.1669858351757292,-0.8682128617659177,False,0.4741631062237399,-0.6282313359089648,"['Co', 'Fe', 'Li', 'O']"
mp-775639,Li3MnV(PO4)3,5,True,-0.6656022935296028,-0.0816409869811681,-0.8682128617659177,False,-0.5110545300651763,1.4054100498839033,"['Li', 'Mn', 'O', 'P', 'V']"
mp-761213,Li3Fe8(BO3)8,4,True,-0.3050412073109977,-0.1994020702886914,0.0856806885233961,True,-0.3744412278972519,0.1716012690622785,"['B', 'Fe', 'Li', 'O']"
mp-1199747,Li2MgB4(H17N3)2,5,False,1.7404095193836455,0.7777028323380579,2.8222339060484467,True,-1.9692213026211915,3.5093621550249248,"['B', 'H', 'Li', 'Mg', 'N']"
mp-1185231,Li3Ce,2,False,2.5387631543499576,-0.5481577864159405,-0.8682128617659177,False,-0.7764488017792361,-0.9401663883345854,"['Ce', 'Li']"
mp-1177906,Li2Ti3CoO8,4,True,-0.9979240233116558,-0.2626526926633156,-0.8682128617659177,False,0.0221500844061602,0.507851810705076,"['Co', 'Li', 'O', 'Ti']"
mp-26345,LiNiP2O7,4,True,-0.3399032728032674,0.0470207483015442,-0.8682128617659177,False,-0.3471289441030313,0.1838463838499888,"['Li', 'Ni', 'O', 'P']"
mp-1175256,Li7Mn4CoO12,4,True,-0.0743180728075783,0.1104946141594737,-0.3619478081377804,False,0.1218790819192194,-0.6049885743898505,"['Co', 'Li', 'Mn', 'O']"
mp-758966,LiBi(PO3)4,4,False,-0.5882155798438966,-0.0161172630221504,2.3274117832833765,True,-0.0713313438564004,0.1615520642436301,"['Bi', 'Li', 'O', 'P']"
mp-1175337,Li7Mn5O12,3,True,-0.1745317406273881,0.0595407114841338,-0.8682128617659177,False,0.0862765424654981,-0.6012413892208114,"['Li', 'Mn', 'O']"
mp-753133,Li3(FeO3)2,3,True,0.3476110125659504,0.2494699702545706,-0.6057025484161399,False,-0.177445885169375,-0.6093502776653236,"['Fe', 'Li', 'O']"
mp-773191,Li6Cr3Sb3O16,4,False,-0.1688859696088367,0.126717218374352,-0.4980442047931978,False,0.3443212130308827,-0.317467021582793,"['Cr', 'Li', 'O', 'Sb']"
mp-761173,LiV(SO4)3,4,False,0.0867833015462257,0.1487349754599908,-0.0852861779218429,False,-0.8644278045550815,0.1119196951965642,"['Li', 'O', 'S', 'V']"
mp-763831,Li8Mn(O2F)2,4,True,-0.3162486376278167,0.5258543421743741,0.802048786341464,True,-0.968924517921072,-0.3530771447577708,"['F', 'Li', 'Mn', 'O']"
mp-1178111,Li10Co3Ni7O20,4,True,0.4881778608407731,0.3624921089665245,-0.8682128617659177,False,0.6174903515824115,-0.2356389139009166,"['Co', 'Li', 'Ni', 'O']"
mp-568365,Li6Br3N,3,False,0.7621380158892355,1.0230104602443546,0.6710983230919224,True,-0.7217963496493688,3.003077128982891,"['Br', 'Li', 'N']"
mp-765841,LiV2O3F,4,False,-0.6988345062421008,-0.1723241080028925,-0.1329537715762769,False,0.0911622053320984,-0.3704789696577461,"['F', 'Li', 'O', 'V']"
mp-862684,LiHf2Os,3,False,1.665589471868567,-8.58877785662723,-0.8682128617659177,False,6.431612630946157,-1.0393112060239291,"['Hf', 'Li', 'Os']"
mp-685266,LiMg7N5,3,False,1.2507004813421336,0.1452216875089948,-0.8164149794567663,False,-0.8847259837367694,1.690016068548243,"['Li', 'Mg', 'N']"
mp-1393717,Li2MnVP2(O4F)2,6,True,1.9212744922882992,0.6616972108581813,-0.8682128617659177,False,-0.4009783361485751,-0.7090318841061688,"['F', 'Li', 'Mn', 'O', 'P', 'V']"
mp-759494,Li4V3P8O29,4,False,-0.6565163524771926,-0.096349318136661,-0.1800796880300932,False,-0.8144734183900327,2.1404580947362035,"['Li', 'O', 'P', 'V']"
mp-772597,Li2CuNiO4,4,True,0.573301523747673,0.4753551860106934,-0.8682128617659177,False,0.5187630256863989,-0.8140920118740681,"['Cu', 'Li', 'Ni', 'O']"
mp-1290742,Li4MgNi3O8,4,True,0.2876111880708872,0.4142967815242497,-0.7126160858882323,False,0.3366926073100454,-0.4351869666537374,"['Li', 'Mg', 'Ni', 'O']"
mp-769278,LiCuPO4,4,False,-0.1731983750963311,0.1992076755961965,-0.4918149169860848,False,-0.4185596152299227,-0.2225279923653459,"['Cu', 'Li', 'O', 'P']"
mp-758359,Li2CrSi4O11,4,False,-0.9986565037535926,-0.168905555042596,-0.510705909357657,False,-0.6991552780425715,0.0175078273135125,"['Cr', 'Li', 'O', 'Si']"
mp-863361,Li3V3P8O29,4,False,-0.6032808857151452,-0.1034280410355691,-0.1901007162415368,False,-0.8471102462068772,2.1800083459776096,"['Li', 'O', 'P', 'V']"
mp-756200,Li2SiNiO4,4,True,-0.5247941480596677,0.1376601224324949,1.396471804370274,True,-0.3156125106907642,-0.274873270893009,"['Li', 'Ni', 'O', 'Si']"
mp-1175086,Li7Mn2(CoO4)3,4,True,0.1392650328147839,0.215871970233637,-0.8682128617659177,False,0.1891203047686111,-0.6112671460096395,"['Co', 'Li', 'Mn', 'O']"
mp-1211089,LiMnP2,3,True,2.4521351617973237,0.596757526842108,-0.8682128617659177,False,-0.3349439404552493,-1.055438183096788,"['Li', 'Mn', 'P']"
mp-1018026,LiAg,2,False,1.9888827673869367,-1.381147232583645,-0.8682128617659177,False,1.374449575684923,-1.0484696653813033,"['Ag', 'Li']"
mp-773801,NaLi5Fe2P2(CO7)2,6,True,-0.3758007370153516,0.029236544460455,1.472103483506643,True,-0.6291446502844379,0.3978092703584124,"['C', 'Fe', 'Li', 'Na', 'O', 'P']"
mp-1210750,Li2ZnPb,3,False,1.929994113205956,1.410132421482504,-0.8682128617659177,False,1.729359437136888,-1.0213060446668518,"['Li', 'Pb', 'Zn']"
mp-761226,LiFe2(BO3)2,4,True,-0.3238498307918531,-0.1792751842995499,0.2666008735300008,True,-0.3458223753757198,0.1632444503755852,"['B', 'Fe', 'Li', 'O']"
mp-25401,Li2TiPO4F,5,False,-0.8060988991948386,0.0741923626748268,-0.8616450257084175,False,-0.5425847087492862,-0.66483558962601,"['F', 'Li', 'O', 'P', 'Ti']"
mp-768354,Li4Mn5Co3O16,4,True,0.1442014576026028,-0.019165972189358,-0.8682128617659177,False,0.5350540188969028,-0.4633175413237403,"['Co', 'Li', 'Mn', 'O']"
mp-772169,Li4Fe3Ni3(TeO8)2,5,True,0.299979233591412,0.2102357083757209,-0.8682128617659177,False,0.7930800482588122,-0.3807349167622459,"['Fe', 'Li', 'Ni', 'O', 'Te']"
mp-774252,Li4Cr2Fe3Sb3O16,5,True,-0.0405142123485188,0.0368538740350929,-0.2437944687528533,False,0.7009819709803962,-0.3181674994691468,"['Cr', 'Fe', 'Li', 'O', 'Sb']"
mp-774742,Li3Sc2(PO4)3,4,False,-1.2610031649510087,-0.1576996894200843,2.293895506495102,True,-0.7386750126398302,1.6295501571366282,"['Li', 'O', 'P', 'Sc']"
mp-780162,Li4Ti3(CoO4)3,4,True,-0.4981116281245176,-0.0710184752747237,-0.4301314257656437,False,0.1262386014088569,0.0769424137622987,"['Co', 'Li', 'O', 'Ti']"
mp-1177146,Li5Bi(P2O7)2,4,False,-0.6953194098456823,0.0936239289544314,1.96374325271808,True,-0.1723928491039986,0.3861843996417389,"['Bi', 'Li', 'O', 'P']"
mp-1180608,LiUAs(H4O5)2,5,False,0.0902279268770231,0.2567285963601827,0.8524247659989915,True,-0.2612062615372487,0.1545921298676084,"['As', 'H', 'Li', 'O', 'U']"
mp-1111113,Li2CuIrF6,4,False,0.1487475901141375,-0.9386328035307776,-0.367838547694508,False,0.5281993968742539,-0.8329454742917648,"['Cu', 'F', 'Ir', 'Li']"
mp-766697,Li2Si4NiO10,4,True,-0.9146030672314076,-0.0811459946684182,1.800969253932197,True,-0.8786239202846707,1.4763770528105415,"['Li', 'Ni', 'O', 'Si']"
mp-752721,LiCu2F5,3,False,-0.1643739618272778,0.055168465170106,-0.8682128617659177,False,0.0313889569463029,-0.6597367505775468,"['Cu', 'F', 'Li']"
mp-757513,Li2Mn3CoO8,4,True,0.0303553915012498,-0.0702115962877744,0.0986809413382418,True,0.3265572189026058,0.4164158368645786,"['Co', 'Li', 'Mn', 'O']"
mp-30766,Li5Sn2,2,False,1.732119758147762,1.267552078395289,-0.8682128617659177,False,-0.1059042834082479,-0.8748861789347875,"['Li', 'Sn']"
mp-775432,Li2V3TeO8,4,False,-0.2843154912765148,-0.0656484960499269,-0.0538011906358881,False,0.3243278212662324,0.6744013600463632,"['Li', 'O', 'Te', 'V']"
mp-1101504,LiMo(PO4)2,4,False,-0.5179833826088738,-0.1252185301265374,0.0977330062371594,True,-0.8296361500422156,-0.6788082728369824,"['Li', 'Mo', 'O', 'P']"
mp-26425,Li3Cr2P5O16,4,False,-0.694527345165996,-0.1094075068361913,1.0542672328794889,True,-0.6741447063818526,0.6348892361280187,"['Cr', 'Li', 'O', 'P']"
mp-1101509,LiMo(PO4)2,4,False,-0.5239942735441905,-0.1268037730291404,0.0669928251020551,True,-0.7617267533217944,-0.700546189400286,"['Li', 'Mo', 'O', 'P']"
mp-1235148,KLiNi2H3(SeO5)2,6,True,0.7137982519988317,0.4861262237269818,-0.4708249254621143,False,-0.085543777219264,-0.596997764802426,"['H', 'K', 'Li', 'Ni', 'O', 'Se']"
mp-759298,Li5V3P8O29,4,False,-0.7074727569841449,-0.0896081385714446,-0.0715411189561458,False,-0.8026901158638743,2.143226049949403,"['Li', 'O', 'P', 'V']"