material_id,formula_pretty,n_elements,contains_transition_metal,formation_energy_per_atom,energy_per_atom,band_gap,is_semiconductor,density,volume,elements
mp-757568,LiMnPO4,4,True,-0.6629320936343821,-0.1398007127754379,1.5756992481249463,True,-0.5862719564202572,1.9021270976272795,"['Li', 'Mn', 'O', 'P']"
mp-753665,LiFe2(PO4)2,4,True,-0.422398499094207,-0.1185413947405213,-0.0127691426890309,False,-0.6887271990565697,-0.1505475674337641,"['Fe', 'Li', 'O', 'P']"
mp-759196,Li3Fe2Co3O10,4,True,0.4182267108545224,0.1411449782904776,-0.8682128617659177,False,0.4487569050061869,-0.2201397550897764,"['Co', 'Fe', 'Li', 'O']"
mp-1273535,Li2V3CoO8,4,True,-0.3448173552568641,-0.1642989197240481,-0.8682128617659177,False,0.1823419974471325,-0.395120747377417,"['Co', 'Li', 'O', 'V']"
mp-766521,Li10Cu4S9,3,False,1.0236676240601996,0.8912113897430284,-0.8682128617659177,False,-0.7221107236208245,0.9598507886268486,"['Cu', 'Li', 'S']"
mp-1235352,LiLa2Co2Sb2(PbO6)2,6,True,-0.1192970478729967,0.1103479458111423,-0.7181682771945728,False,2.162663613884371,-0.3780458904411928,"['Co', 'La', 'Li', 'O', 'Pb', 'Sb']"
mp-865963,LiGaAg2,3,False,1.938163808108006,-2.051422462946436,-0.8682128617659177,False,2.6997168133553098,-1.058062413804286,"['Ag', 'Ga', 'Li']"
mp-26948,LiV(PO4)2,4,False,-0.5391537332787435,-0.0882046040978759,-0.2779201323918243,False,-0.5089072181089432,-0.4431894459487746,"['Li', 'O', 'P', 'V']"
mp-25841,Li2Ni(PO3)5,4,True,-0.4987804724729895,0.0082619994413589,-0.108781426498673,False,-0.7657827425033564,0.4821980763561102,"['Li', 'Ni', 'O', 'P']"
mp-1177411,Li4Fe3Ni2Sb3O16,5,True,0.1565483054600153,0.1690902755854593,-0.5771290760835107,False,0.7551296593020212,-0.3202641729132753,"['Fe', 'Li', 'Ni', 'O', 'Sb']"
mp-757583,Li2TiCuO4,4,False,-0.4414320008843037,0.1310204364685914,-0.8682128617659177,False,0.3159318720900681,-1.0231917755699254,"['Cu', 'Li', 'O', 'Ti']"
mp-752743,Li2MnPO5,4,True,-0.5493293495808853,0.0032633512443248,0.1370723129320836,True,-0.4324358225718841,-0.6826636278990537,"['Li', 'Mn', 'O', 'P']"
mp-776751,Li4V5Co3O16,4,True,-0.2131301181359737,-0.1093574714892978,0.0071374944337017,True,0.2209985137546978,-0.3976666572872556,"['Co', 'Li', 'O', 'V']"
mp-534775,LiTi3MnCr(PO4)6,6,True,-1.019832712729767,-0.307111100606703,0.5887633885978986,True,-0.4792675444239987,1.3768806138761227,"['Cr', 'Li', 'Mn', 'O', 'P', 'Ti']"
mp-759336,Li7Cr7P6(O8F)3,5,False,-0.6776136198675577,-0.1087109794393752,0.1744480397747653,True,-0.3260955173202522,1.8167208386438851,"['Cr', 'F', 'Li', 'O', 'P']"
mp-26832,LiMo(PO4)2,4,False,-0.5201062919717452,-0.1257784017057386,0.0860192367737826,True,-0.340837961694707,-0.3716539564184157,"['Li', 'Mo', 'O', 'P']"
mp-753080,Li3V(OF)2,4,False,-0.8531449344943542,0.2788611183362588,-0.0709317321054505,False,-0.3695772813544453,-0.3879145858149001,"['F', 'Li', 'O', 'V']"
mp-766016,LiVCrP2(O4F)2,6,False,-0.8235014302255415,-0.1270019016198052,0.0073406233839343,True,-0.3888036656633952,-0.2158970511843865,"['Cr', 'F', 'Li', 'O', 'P', 'V']"
mp-773105,Li2Zr7Fe(PO4)12,5,True,-1.13241734057798,-0.3126399372151759,-0.8682128617659177,False,-0.5045414614316861,1.719272865793314,"['Fe', 'Li', 'O', 'P', 'Zr']"
mp-759480,LiMn2F5,3,True,-1.084736443701184,0.1717985795014797,1.3140691602261736,True,-0.2175671829853185,-0.0520517717954042,"['F', 'Li', 'Mn']"
mp-1188218,LiH2N,3,False,1.8287237713312132,0.7851911997674244,1.7795730045077631,True,-1.4410511598023308,-0.9622517406469464,"['H', 'Li', 'N']"
mp-1303576,LiCo(CO3)2,4,True,0.2530956620825002,-0.0537766242126926,-0.3941098919245083,False,-0.7789156766620351,0.1405496608712185,"['C', 'Co', 'Li', 'O']"
mp-1177768,Li2VFeP2(HO5)2,6,True,-0.4331288186800194,-0.001592173406275,0.4086557193922226,True,-0.4187077430844458,-0.1803780024302828,"['Fe', 'H', 'Li', 'O', 'P', 'V']"
mp-25466,LiCuPCO7,5,False,0.144164775032055,0.1184404715657318,-0.8682128617659177,False,-0.6609780980410138,-0.455397249744896,"['C', 'Cu', 'Li', 'O', 'P']"
mp-26293,LiMoP2O7,4,False,-0.6389335869774782,-0.1654553722022584,1.955347256108492,True,-0.0973387637020813,-0.8699254170675842,"['Li', 'Mo', 'O', 'P']"
mp-675075,Li7Mn10O20,3,True,0.4057715459608416,0.0464915170625188,-0.68587077410769,False,0.1359482251581614,-0.1248032537311093,"['Li', 'Mn', 'O']"
mp-780571,Li3Mn4(BO3)4,4,True,-0.5445572781805903,-0.225498089946788,-0.60191080801181,False,-0.4162161205742279,0.2205369354024576,"['B', 'Li', 'Mn', 'O']"
mp-1236326,BaLiV2Ni3(HO5)2,6,True,0.15077533348646,0.1185251971483635,-0.860493961657103,False,0.395172466407956,-0.5927966762699041,"['Ba', 'H', 'Li', 'Ni', 'O', 'V']"
mp-1267031,LiAlSiH2O5,5,False,-0.6108058646582243,0.141350104950978,2.117376448743524,True,-1.1920898176928731,0.165105882382283,"['Al', 'H', 'Li', 'O', 'Si']"
mp-1236082,LiV2Zn2(SiO5)2,5,False,-0.5683504581431348,-0.0264835724820444,-0.8682128617659177,False,0.1615772584879868,-0.6906270374442105,"['Li', 'O', 'Si', 'V', 'Zn']"
mp-1200046,Li3V2BP4H2O17,6,False,-0.6804932430169224,-0.072854734801356,0.6464520104637778,True,-0.6378887617528141,2.4061544266193384,"['B', 'H', 'Li', 'O', 'P', 'V']"
mp-752808,Li4Cr3Fe2Co3O16,5,True,0.1854224892745715,-0.0092181915462873,-0.4046048876864933,False,0.5255492165784337,-0.4683033160658205,"['Co', 'Cr', 'Fe', 'Li', 'O']"
mp-762600,Li6Fe7O15,3,True,0.7572933057820297,0.2363066739703888,-0.8682128617659177,False,0.2921070856311738,-0.4679148673210174,"['Fe', 'Li', 'O']"
mp-771821,LiNbCoO4,4,True,-0.4735056040894867,-0.1999849521606496,0.6913435084650418,True,0.5644588487917589,-0.3080409712733227,"['Co', 'Li', 'Nb', 'O']"
mp-753601,Li2MnF6,3,True,-0.9423166295738336,0.5015862679205054,1.0481056547224523,True,-0.4733401417482884,-0.6619853183109823,"['F', 'Li', 'Mn']"
mp-685194,Li4Ti5O12,3,False,-1.3522885749749798,-0.2891888387189347,0.9736250396373984,True,-0.1693836888977448,0.0207999887035738,"['Li', 'O', 'Ti']"
mp-754856,Li7Y7ZrS16,4,False,-0.09234802834724,0.263137756911725,0.3092579530787129,True,-0.3270657124889684,0.636654120268411,"['Li', 'S', 'Y', 'Zr']"
mp-674176,Li2PbO3,3,False,0.4442521189860392,0.5739379335355466,-0.7649556453980022,False,2.0392023865643085,-0.478985698693744,"['Li', 'O', 'Pb']"
mp-734071,Li2Cr2H4O9,4,False,0.4026658548960801,0.2584487645607803,0.9270408003841998,True,-1.262580448664617,0.1304936184148055,"['Cr', 'H', 'Li', 'O']"
mp-1176320,Li9Mn2Co5O16,4,True,0.1571069289756257,0.2170493822514625,-0.8682128617659177,False,0.3200625614808958,-0.4183197494975257,"['Co', 'Li', 'Mn', 'O']"
mp-767820,Li4V8O13F3,4,False,-0.6840663290642839,-0.1998700096729116,-0.2179293824233169,False,-0.0481840642438627,-0.325257973454239,"['F', 'Li', 'O', 'V']"
mp-777054,LiV6O7F5,4,False,-0.8145503236637033,-0.2125856015102622,-0.1375580277815349,False,0.1692914554270286,-0.6158221472060278,"['F', 'Li', 'O', 'V']"
mp-1175310,Li7Mn5O12,3,True,-0.1579764092751891,0.0639068232317475,-0.8682128617659177,False,0.0788749102713258,0.0393095784561065,"['Li', 'Mn', 'O']"
mp-12525,Sr2LiReO6,4,False,-0.8411906013407737,-0.0592514740138757,0.2526526856140718,True,1.584757195637814,-0.8742444738718516,"['Li', 'O', 'Re', 'Sr']"
mp-1175080,Li7Mn2(CoO4)3,4,True,0.1264234129294539,0.2124852698259595,-0.6996158330733856,False,0.1934065780514159,-0.612261399416678,"['Co', 'Li', 'Mn', 'O']"
mp-1175071,Li7Mn2(CoO4)3,4,True,0.2310913764265687,0.2400891887872586,-0.8682128617659177,False,0.1085177572935556,-0.5919640722875485,"['Co', 'Li', 'Mn', 'O']"
mp-1197150,Li(PrGe)4,3,False,1.305458087267783,0.6069422115454656,-0.8309048445733134,False,1.6032930095860571,1.4489130290639407,"['Ge', 'Li', 'Pr']"
mp-1174419,Li4MnCo2O7,4,True,0.1454969238086163,0.2154994951587923,-0.8661815722635982,False,0.2635078278299769,-0.5148415913773033,"['Co', 'Li', 'Mn', 'O']"
mp-1176700,LiMn(PO3)4,4,True,-0.6097442196822138,-0.1067756777217357,-0.844311355288623,False,-0.6952892465687744,0.0981483197423382,"['Li', 'Mn', 'O', 'P']"
mp-1195657,LiSb2F7,3,False,-0.8958245169390514,0.618799506533343,2.329375363135619,True,0.4485030975791441,0.425535303435192,"['F', 'Li', 'Sb']"
mp-1283001,LiV2OF7,4,False,-1.084269045109762,0.2393517098973089,0.3714831214997728,True,-0.4377721561483167,-0.8388520454038565,"['F', 'Li', 'O', 'V']"
mp-755688,Li4MnSb(WO6)2,5,True,-0.2429212558084846,-0.0662627975010062,-0.6786258415494159,False,1.4991061871536944,-0.0149625764131569,"['Li', 'Mn', 'O', 'Sb', 'W']"
mp-774821,LiNiPO4,4,True,-0.3379499361806152,0.0860840317326329,1.628377355885103,True,-0.3640108082833785,-0.2773836322894563,"['Li', 'Ni', 'O', 'P']"
mp-1176179,Li9Mn2Co5O16,4,True,0.1977145365429598,0.2277587633366485,-0.788789442225219,False,0.2559506756843949,-0.3993108419092238,"['Co', 'Li', 'Mn', 'O']"
mp-1097331,Li2CaGa,3,False,3.490588513569405,0.7725140007015626,-0.8682128617659177,False,-2.404433951227284,2.55237857951012,"['Ca', 'Ga', 'Li']"
mp-859124,Li5Fe(P2O7)2,4,True,-0.6491035258720663,0.0504426977678406,0.5110327103091334,True,-0.6194538643689618,0.250518342649589,"['Fe', 'Li', 'O', 'P']"
mp-1035156,LiMg14BiO16,4,False,-0.9178425431832204,0.3193229293141563,2.0209579070334165,True,0.3451706456056531,-0.3252972218933921,"['Bi', 'Li', 'Mg', 'O']"
mp-1177591,Li3MnV(PO4)3,5,True,-0.6945464894146729,-0.0892743946726578,-0.4204489458045867,False,-0.5417219547681206,1.4466175207638812,"['Li', 'Mn', 'O', 'P', 'V']"
mp-12449,LiPr2OsO6,4,False,-0.9097273237505809,-0.2219749968106455,-0.8682128617659177,False,2.5252320679675297,-0.5053483924629938,"['Li', 'O', 'Os', 'Pr']"
mp-1297753,Li2V3SnO8,4,False,-0.4362466779793952,-0.1236702844618478,-0.1460217340412002,False,0.41856438536151,-0.3321375694154465,"['Li', 'O', 'Sn', 'V']"
mp-765349,Li2Cr5(Si2O5)6,4,False,-0.9735814978273456,-0.2908773085415425,0.256579845318557,True,-0.6990304998834327,2.6286283805283657,"['Cr', 'Li', 'O', 'Si']"
mp-1246199,Li3BiN2,3,False,1.9224586010000888,-2.012430999778494,-0.8682128617659177,False,1.1500314424980749,0.5701315215076537,"['Bi', 'Li', 'N']"
mp-760347,Li4Ti3VO8,4,False,-0.969255285108122,-0.16741792621317,-0.8682128617659177,False,0.0702696759901768,-0.8024661153236532,"['Li', 'O', 'Ti', 'V']"
mp-10178,LiMgP,3,False,1.7307471015011506,1.1291241559428378,-0.8682128617659177,False,-1.074297405952998,-1.099033366875512,"['Li', 'Mg', 'P']"
mp-1288012,Li2MnCrO4,4,True,-0.3064382850847294,-0.0807419100388875,-0.8682128617659177,False,0.286500002092578,-0.8139875245645927,"['Cr', 'Li', 'Mn', 'O']"
mp-757112,Li5Co3(SnO5)2,4,True,0.1110436979131076,0.2849547950542324,-0.6364427295512448,False,0.8717402376941993,-0.660349777200744,"['Co', 'Li', 'O', 'Sn']"
mp-726692,Li2OsO6,3,False,0.597958365651952,0.2543236062861189,-0.8682128617659177,False,0.3906853285924203,-0.5741239760265644,"['Li', 'O', 'Os']"
mp-1185406,LiPr3,2,False,2.327623472055576,-4.419124610365292,-0.8682128617659177,False,1.1508036080571058,-0.8615304937760097,"['Li', 'Pr']"
mp-690542,Li4WO5,3,False,-0.4000580985562353,0.1179035943790355,1.236338481937408,True,1.1772994243697703,-0.9843856623444408,"['Li', 'O', 'W']"
mp-752740,LiMnF4,3,True,-1.0097530875904457,0.3668865047368858,0.6623637782319484,True,-0.4328950864293641,-0.8120806345667202,"['F', 'Li', 'Mn']"
mp-849804,LiFeSiO4,4,True,-0.5516579141393809,-0.0821796811779244,1.1301020409660891,True,-0.5543034253937367,4.861655160541116,"['Fe', 'Li', 'O', 'Si']"
mp-976017,Li3Co,2,True,2.5334707376681145,0.7275599334380286,-0.8682128617659177,False,-0.9375309672916208,-1.0753427288955235,"['Co', 'Li']"
mp-753744,Li4MnCu3(PO4)4,5,True,-0.3496415724327329,0.1002116666037068,-0.8682128617659177,False,-0.0589416501296568,-0.3828640415827523,"['Cu', 'Li', 'Mn', 'O', 'P']"
mp-768589,Li3CuAsCO7,5,False,0.0873619458716618,0.2592439451789637,-0.6755111976458591,False,-0.2966261822918514,-0.4165959381871549,"['As', 'C', 'Cu', 'Li', 'O']"
mp-861577,Li2VO3,3,False,-0.5522051727589061,0.0514008244242608,0.3503577106756476,True,-0.1922137800824748,-0.613279078161761,"['Li', 'O', 'V']"
mp-1035690,RbLiMg14O15,4,False,-0.7637355379389804,0.4019799434310324,0.8986027473517252,True,-0.3579235507357661,-0.2349952803063469,"['Li', 'Mg', 'O', 'Rb']"
mp-1184983,Li2CdBi,3,False,1.7460861811197208,-4.048928362189619,-0.8682128617659177,False,2.0055928538897265,-0.9999097173397152,"['Bi', 'Cd', 'Li']"
mp-677323,Li11TiSb5,3,False,1.420810317764765,-0.9491523887450524,-0.7967114712842663,False,-0.1766635502866501,-0.2299492250692997,"['Li', 'Sb', 'Ti']"
mp-768436,Li2MnBO4,4,True,-0.4021563365407647,0.0018643984108265,-0.1745274967237534,False,-0.427006248050549,-0.3529472305371091,"['B', 'Li', 'Mn', 'O']"
mp-553950,Li10Si2PbO10,4,False,-0.5656711444776057,0.3408499034649184,1.1526493544418372,True,-0.1764874348314091,0.1172833779209428,"['Li', 'O', 'Pb', 'Si']"
mp-1175349,Li7Mn5O12,3,True,-0.1892685335283473,0.0556542000493461,-0.1895590390409183,False,0.0640485797914965,-0.5957395305827512,"['Li', 'Mn', 'O']"
mp-1097271,LiY2Ag,3,False,4.537805432583986,-1.933681679822682,-0.6899333531123286,False,-2.260266573344377,2.5342726746998405,"['Ag', 'Li', 'Y']"
mp-510742,Na2LiFeO4,4,True,0.5025914590881465,0.4797302675503011,-0.8682128617659177,False,-0.6778287590276438,-0.0275519828534954,"['Fe', 'Li', 'Na', 'O']"
mp-1344252,Li4MnCo2O7,4,True,2.0807297167952545,0.725875424946745,-0.8682128617659177,False,0.2559561591861144,-0.5128661679777505,"['Co', 'Li', 'Mn', 'O']"
mp-1176221,Li9Mn2Co5O16,4,True,0.2004680859220083,0.2284849526249045,-0.8682128617659177,False,0.282364068264531,-0.4072480657894446,"['Co', 'Li', 'Mn', 'O']"
mp-759219,LiMn2(PO3)5,4,True,-0.6208096286837542,-0.1580819192030719,-0.8682128617659177,False,-0.6824368722409734,0.5591012983596161,"['Li', 'Mn', 'O', 'P']"
mp-1020014,Li3B11O18,3,False,-0.9281383923071757,-0.231684857060808,2.976747327524896,True,-1.127464122669268,2.734495535281035,"['B', 'Li', 'O']"
mp-766206,SrLi4La15(CoO8)4,5,True,-1.33378107211423,-0.213153446283553,-0.2424402757513075,False,1.919155281956313,0.8965818967694789,"['Co', 'La', 'Li', 'O', 'Sr']"
mp-704203,Li2VP4O13,4,False,-0.7095856987678087,-0.0829766381285716,0.3936241770750569,True,-0.8703113860096775,0.3150314537115428,"['Li', 'O', 'P', 'V']"
mp-754751,Li3Nb3TeO12,4,False,-0.6695678452152272,-0.1427719724343472,0.5264028008766856,True,0.6365833115335928,-0.6067373494313296,"['Li', 'Nb', 'O', 'Te']"
mp-1304341,Li2FeSiO5,4,True,-0.3606069270124463,0.0750263838759678,-0.8682128617659177,False,-0.3993715288528137,-0.1566404877519604,"['Fe', 'Li', 'O', 'Si']"
mp-865029,LiPaRu2,3,False,1.7826111310438553,-7.427575538650483,-0.8682128617659177,False,5.090146696730199,-1.0523513165705018,"['Li', 'Pa', 'Ru']"
mp-757577,LiPWO5,4,False,-0.5483117708625352,-0.2387409947687764,0.6696087107902218,True,0.951801868028448,-0.119321794110276,"['Li', 'O', 'P', 'W']"
mp-25923,Li6Mn9(PO4)8,4,True,-0.6507811094777901,-0.1921292285749274,1.2519794111052691,True,-0.3236003322922758,0.6640186252801227,"['Li', 'Mn', 'O', 'P']"
mp-1175624,Li9Mn2Co5O16,4,True,0.154233899839834,0.2162916827530861,-0.0385665193684907,False,0.2812769298094827,-0.4069243457822086,"['Co', 'Li', 'Mn', 'O']"
mp-571587,Na2LiN,3,False,2.3932787366528205,1.2319815608143685,-0.5788218173354431,False,-1.0538479731610264,-0.9430723166713012,"['Li', 'N', 'Na']"
mp-1175597,Li9Mn2Co5O16,4,True,0.1627348861480028,0.2185336346292995,-0.6174840275295947,False,0.2748292077099537,-0.4049991945851059,"['Co', 'Li', 'Mn', 'O']"
mp-1235115,Sr2Li(H4O3)2,4,False,0.3563611413026521,0.5721132450219567,-0.8682128617659177,False,-0.9327472697365812,-0.6556180977078812,"['H', 'Li', 'O', 'Sr']"
mp-1253150,LiAlFeO4,4,True,-0.3350749687782019,0.0445641386016924,-0.8062585319451687,False,-0.0378783564996516,-0.4396984081660946,"['Al', 'Fe', 'Li', 'O']"
mp-1221254,Na3LiFe4(SiO3)8,5,True,-0.833501689886658,-0.1460751612416727,1.0055839944738936,True,-0.2340683226846755,0.0421781890450092,"['Fe', 'Li', 'Na', 'O', 'Si']"
mp-19209,LiAl(MoO4)2,4,False,-0.4151679191321539,-0.1890228243520356,1.586397372837163,True,-0.0277453758490045,-0.3233238226685799,"['Al', 'Li', 'Mo', 'O']"
mp-850209,Li5Mn(Ni2O5)2,4,True,0.34737262346563,0.3057443869631518,-0.8682128617659177,False,0.5373098342987662,-0.7280346601477128,"['Li', 'Mn', 'Ni', 'O']"
mp-755661,Li4Cr3NiO8,4,True,-0.2328950553260108,-0.008923209911377,-0.6504586271172498,False,0.2957304784731743,-0.8144530542134786,"['Cr', 'Li', 'Ni', 'O']"
mp-1096762,SrLi2Si,3,False,3.705115846457258,1.722665080765842,-0.7377363660669181,False,-2.4043287952816064,2.7293488809493027,"['Li', 'Si', 'Sr']"
mp-25467,LiWO2,3,False,0.2473702047363717,-0.192236288632382,-0.8682128617659177,False,2.967162926882095,-1.1076419943032332,"['Li', 'O', 'W']"
mp-1210850,Li2In(PO4)2,4,False,-0.5331112828008026,0.1261586151533076,-0.7763985762610697,False,-0.2971150274707091,-0.3138904480670991,"['In', 'Li', 'O', 'P']"
mp-765395,Li4V3P8O29,4,False,-0.6607959580120552,-0.0974779718375994,-0.3108947319794801,False,-0.8052656542577332,2.122199743550438,"['Li', 'O', 'P', 'V']"
mp-764791,Li2Mn(SiO3)2,4,True,-0.9174323592183564,-0.1148525577550502,1.5595166417564656,True,-0.7053633963471494,0.3340070441500083,"['Li', 'Mn', 'O', 'Si']"
mp-779006,Li3Mn2Fe(BO3)3,5,True,-0.5230404121044295,-0.164220344450961,1.110533952093743,True,-0.3662313883097426,-0.1513510832918502,"['B', 'Fe', 'Li', 'Mn', 'O']"
mp-753299,LiAgF2,3,False,-0.0954186182504075,-0.6621281578238738,0.1351764427299185,True,0.5082777357602947,-0.5882992631255075,"['Ag', 'F', 'Li']"
mp-759537,LiFe2(BO3)2,4,True,-0.3223394599832074,-0.1788768565590418,0.2284126308863911,True,-0.3470773707112051,0.1640579169009097,"['B', 'Fe', 'Li', 'O']"
mp-1177610,Li3Ti3VO8,4,False,-1.040523939890604,-0.2459923595249707,-0.8682128617659177,False,0.0158192534725941,-0.8018895034350759,"['Li', 'O', 'Ti', 'V']"
mp-752657,Li2FeP2O7,4,True,-0.6261568546904226,-0.0228258999929056,2.0777663034482896,True,-0.565303134958105,0.3704697834556815,"['Fe', 'Li', 'O', 'P']"
mp-27085,LiMn4(PO4)3,4,True,-0.6168665962424562,-0.2803678896954397,1.3741276198447587,True,-0.4205584605438003,1.9052186006169751,"['Li', 'Mn', 'O', 'P']"
mp-850742,LiV3OF11,4,False,-1.081560117810833,0.2532148319056682,-0.8682128617659177,False,-0.5204875294988434,0.0032085144934395,"['F', 'Li', 'O', 'V']"
mp-1174160,Li5Mn(CoO4)2,4,True,0.157203018884713,0.2644457965423477,-0.8682128617659177,False,0.1392882545395141,-0.8317442745501856,"['Co', 'Li', 'Mn', 'O']"
mp-1222423,LiTa2CuO6,4,False,-0.8736485088356097,-0.4159913119798823,-0.0799371155657337,False,2.755768001302835,-0.9161897146174788,"['Cu', 'Li', 'O', 'Ta']"
mp-758791,Li5Mn5O12,3,True,-0.0677767500900893,0.0077572665816347,-0.7521585215333882,False,0.0317203162392334,0.027962567183671,"['Li', 'Mn', 'O']"
mp-1235277,LiMn9CdO10,4,True,0.2935230223708164,-0.2463985933760764,-0.8682128617659177,False,0.92880519758673,-0.516093208438877,"['Cd', 'Li', 'Mn', 'O']"
mp-1222585,LiCr(FeO2)4,4,True,0.1512788280941021,-0.1834928216415306,-0.8600199941065618,False,0.4990552104928368,-0.8005700500644977,"['Cr', 'Fe', 'Li', 'O']"
mp-755249,Li2NiSnO4,4,True,0.0145772276931356,0.3312546135392074,0.7875589212249172,True,0.9970688643738151,-0.3038378001338778,"['Li', 'Ni', 'O', 'Sn']"
mp-764927,Li4Cr(PO4)3,4,False,-0.5592370710181828,0.0433771630920381,0.0355755474661776,True,-0.7670649777751964,0.7765514645024082,"['Cr', 'Li', 'O', 'P']"
mp-758022,LiCoPO4,4,True,-0.4732140571089394,-0.0056819568056012,1.3265954454904785,True,-0.5138344661485049,-0.2036983646446036,"['Co', 'Li', 'O', 'P']"
mp-1177597,Li3MnFeCo(PO4)3,6,True,-0.5697321104199824,-0.0776320161703671,0.7897256300273906,True,-0.1919160521005473,1.3948409297847812,"['Co', 'Fe', 'Li', 'Mn', 'O', 'P']"
mp-1235073,LiLu2W2(ClO4)2,5,False,-0.749248261112884,-0.2091858986013491,0.6587074571277716,True,1.515458572216676,-0.5020424161667062,"['Cl', 'Li', 'Lu', 'O', 'W']"
mp-585332,LiMo4P7O24,4,False,-0.5609684388522979,-0.2368434440676488,1.4388580453186774,True,-0.2955294178705853,1.6357556420199473,"['Li', 'Mo', 'O', 'P']"