material_id,formula_pretty,n_elements,contains_transition_metal,formation_energy_per_atom,energy_per_atom,band_gap,is_semiconductor,density,volume,elements
mp-777480,Li2Ti3MnO8,4,True,-1.191425362942567,-0.3557268563976188,0.1077540344486023,True,-0.044050636416506,0.533944315831432,"['Li', 'Mn', 'O', 'Ti']"
mp-757824,Li5Mn3Co2(PO4)6,5,True,-0.4910483965035944,-0.0599213529983728,-0.2786649385426748,False,-0.3741597152250058,0.0950166242897348,"['Co', 'Li', 'Mn', 'O', 'P']"
mp-757769,K8Li9Mn4O16,4,True,0.1110845850352749,0.454145095931908,-0.5723894005780982,False,-0.6738840360515106,0.2494386751156408,"['K', 'Li', 'Mn', 'O']"
mp-764752,LiV2OF7,4,False,-1.0516588634499515,0.2479519423062969,0.3867855024172474,True,-0.8241534087445631,-0.2564275159783472,"['F', 'Li', 'O', 'V']"
mp-1174938,Li7Mn2(CoO4)3,4,True,0.1208137945381547,0.2110058539062879,-0.6537086903209619,False,0.2636742123031923,-0.6281225801294824,"['Co', 'Li', 'Mn', 'O']"
mp-1177277,Li4TiV4(Fe2O9)2,5,True,-0.2959589885967624,-0.1754516651466421,0.1219053513147633,True,0.0744556697232843,0.7256738541806332,"['Fe', 'Li', 'O', 'Ti', 'V']"
mp-1174196,Li7Co5O12,3,True,0.2631310885984872,0.2975883885151071,-0.863270057310274,False,0.6323104315971255,-0.6915475071698147,"['Co', 'Li', 'O']"
mp-556165,LiB(CO2)4,4,False,0.1556980405831711,-0.1835899358030674,1.395049901718651,True,-1.233247604952327,0.7109367420746704,"['B', 'C', 'Li', 'O']"
mp-761029,Li3V3P8O29,4,False,-0.6054383818588058,-0.1039970341325883,-0.0395821641196498,False,-0.841840473166667,2.169204516088702,"['Li', 'O', 'P', 'V']"
mp-27013,Li9V3P8O29,4,False,-0.8313444018793495,-0.049793949955558,0.540554117742846,True,-0.7475766935563044,2.138558892675561,"['Li', 'O', 'P', 'V']"
mp-1174234,Li3MnCoO5,4,True,0.0777362186072458,0.2024674746823425,-0.7822216061677187,False,0.1256802686609519,-0.7153414572412836,"['Co', 'Li', 'Mn', 'O']"
mp-757640,Li2Ni(PO3)4,4,True,-0.5431773551045302,0.0114166303824515,1.5620896084594045,True,-0.3629878867587506,-0.0767829444169574,"['Li', 'Ni', 'O', 'P']"
mp-761155,Li4Co3Ni3(WO8)2,5,True,0.2641381989824379,0.0389242076892765,-0.8621189932589595,False,1.248798677888275,-0.3807813068552971,"['Co', 'Li', 'Ni', 'O', 'W']"
mp-1236401,LiTa2Te4Br10O,5,False,0.8283031163711675,0.7975638312255773,-0.6591254623271477,False,0.4038003344797138,0.6278045759407237,"['Br', 'Li', 'O', 'Ta', 'Te']"
mp-655591,LiB13C2,3,False,2.003885626122406,0.1232772970785126,0.9228428020794066,True,-0.9602557530064194,-0.5276872901795366,"['B', 'C', 'Li']"
mp-849382,Li16Mn15Fe(PO4)16,5,True,-0.7129436724775491,-0.1511975062483819,1.4767754493619791,True,-0.2752996117145078,2.3673049311616468,"['Fe', 'Li', 'Mn', 'O', 'P']"
mp-1111263,Li2MnCuF6,4,True,-0.5173166190742167,0.5735986234775425,-0.8682128617659177,False,-0.4508973130485653,-0.8541614587962914,"['Cu', 'F', 'Li', 'Mn']"
mp-770248,LiMnPCO7,5,True,-0.2270371929467925,-0.1129980219019222,-0.1442612831391898,False,-0.7183352740119324,0.315814024233749,"['C', 'Li', 'Mn', 'O', 'P']"
mp-759701,Li4Ti3Fe2Ni3O16,5,True,-0.2017251785243038,-0.0146127461922772,-0.8682128617659177,False,0.3029752512704104,-0.4223230604279067,"['Fe', 'Li', 'Ni', 'O', 'Ti']"
mp-706252,LiFe5O8,3,True,0.327602703414142,-0.1124731846995965,-0.1661992097642422,False,0.6027702255101832,2.177555703498124,"['Fe', 'Li', 'O']"
mp-859116,Li4VF6,3,False,-1.058849590106424,0.5156013621565153,0.8059759460459486,True,-0.9270207150016015,-0.4566741945446027,"['F', 'Li', 'V']"
mp-26925,LiCo(PO3)4,4,True,-0.4261624532653168,-0.0256603335495394,-0.0894164665765589,False,-0.6099021399714336,0.0515662418218736,"['Co', 'Li', 'O', 'P']"
mp-1174126,Li4MnCo3O8,4,True,0.2241770511980956,0.1873666084544809,-0.5187633577168591,False,0.3995934150055336,-0.810770895137512,"['Co', 'Li', 'Mn', 'O']"
mp-33314,Li3Mn2O4,3,True,0.0943803499325082,0.1502189657508714,-0.8682128617659177,False,0.0845554176012451,-0.7565138596588497,"['Li', 'Mn', 'O']"
mp-2362521,Li9Ge4,2,False,1.7889032935053737,1.2143649356604411,-0.8682128617659177,False,-0.5959735078830312,-0.0541863357097042,"['Ge', 'Li']"
mp-1276652,Li2TiCrO4,4,False,-0.7484916638422519,-0.1513891237482713,-0.8682128617659177,False,0.133985446196314,-0.3752050752279239,"['Cr', 'Li', 'O', 'Ti']"
mp-974959,Rb3Li,2,False,2.334174102488724,1.802500621859053,-0.8682128617659177,False,-1.4599829115361271,-0.4328832818991789,"['Li', 'Rb']"
mp-1223209,Li2Pd(N2O5)2,4,False,1.4347904910324905,0.3498329372912765,-0.8682128617659177,False,-1.046157669186824,1.711902833153052,"['Li', 'N', 'O', 'Pd']"
mp-1236409,Rb2LiNb2(TeO6)2,5,False,-0.2532835850553782,0.1016238305340784,-0.8682128617659177,False,0.5397149668561029,-0.3849134401736207,"['Li', 'Nb', 'O', 'Rb', 'Te']"
mp-776080,LiFeF3,3,True,-0.8998431171335266,0.3659754153456808,1.5985851098510817,True,-0.2013531075113285,0.0939370670802161,"['F', 'Fe', 'Li']"
mp-758881,Li4Mn2Si4O13,4,True,-0.8469451323948108,-0.0973058914333159,0.0321223553122335,True,-0.4729661480924472,1.6481166055921257,"['Li', 'Mn', 'O', 'Si']"
mp-757406,LiFePO4,4,True,-0.5065708458575243,-0.069880887561952,1.6369764814449226,True,-0.5654433317228772,-0.1966198767623865,"['Fe', 'Li', 'O', 'P']"
mp-1185345,LiEr3,2,False,2.3748997100766336,-5.39057866992767,-0.8682128617659177,False,2.452293705055471,-0.5802696070621844,"['Er', 'Li']"
mp-1026782,LiMg14C,3,False,2.49607669343557,1.581127123041095,-0.8682128617659177,False,-1.3248104093732376,-0.2650784878022624,"['C', 'Li', 'Mg']"
mp-1185454,LiScIn2,3,False,1.690520241501606,-2.2909042096966723,-0.8682128617659177,False,1.1875598919048005,-0.9938273668795876,"['In', 'Li', 'Sc']"
mp-762511,LiFe2C2O7,4,True,0.208948290038412,-0.1456235758396992,0.1530517903503315,True,-0.7650762509559608,-0.3013223321419677,"['C', 'Fe', 'Li', 'O']"
mp-1198280,Li2H32Pt(C6O)2,5,False,1.893608013477488,0.621911582323125,0.979041811643584,True,-1.5850673533254225,10.353328916190954,"['C', 'H', 'Li', 'O', 'Pt']"
mp-774881,Li4Ti3Nb2V3O16,5,False,-0.9952435042268049,-0.3603992546644346,-0.8682128617659177,False,0.2385245600772417,-0.3437952949570155,"['Li', 'Nb', 'O', 'Ti', 'V']"
mp-756596,Li2Mn3CuO8,4,True,0.1328802390771465,0.0197106040247495,-0.8682128617659177,False,0.3021235663463492,-0.8156488908444405,"['Cu', 'Li', 'Mn', 'O']"
mp-1196643,LiC2S2NO5F6,6,False,0.6006690617528619,0.4477555052737113,-0.8671295073646813,False,-1.152775500072637,4.496849346409386,"['C', 'F', 'Li', 'N', 'O', 'S']"
mp-865871,Li2ZnAu,3,False,1.744196516774955,-2.663123370045449,-0.8682128617659177,False,2.9539146328212627,-1.0759215698104094,"['Au', 'Li', 'Zn']"
mp-1309506,Li2Fe3SnO8,4,True,0.1867662665302179,0.0788039236172344,-0.7940707949312501,False,0.6341591109689232,-0.3642527350079545,"['Fe', 'Li', 'O', 'Sn']"
mp-675020,Li4MoO5,3,False,-0.2932160005122584,0.2073739970120793,1.0817573508108815,True,0.0723081522044094,-0.9849988721850323,"['Li', 'Mo', 'O']"
mp-1176289,Li9Mn2Co5O16,4,True,0.2145369560334566,0.2321953138229053,-0.8682128617659177,False,0.2665851286791278,-0.4025246610506196,"['Co', 'Li', 'Mn', 'O']"
mp-760139,Li2MnF4,3,True,-1.1707248356128737,0.374676258794799,1.947966904250064,True,-0.3555287125308386,-0.8067076968517726,"['F', 'Li', 'Mn']"
mp-1222577,LiAlNi3O5,4,True,0.0550497144448787,0.168261506016634,1.2133849105611958,True,1.0756778526827078,-0.7191006783239398,"['Al', 'Li', 'Ni', 'O']"
mp-754420,Li7FeO5F,4,True,-0.1203872444343613,0.5021381344254374,-0.3812450584098178,False,-0.7828843971715036,-0.860093770169567,"['F', 'Fe', 'Li', 'O']"
mp-2356674,Li2NbF6,3,False,-1.2994127793729862,-0.359891257179359,-0.8184462689590861,False,-0.1401860645242988,-0.9391638349518884,"['F', 'Li', 'Nb']"
mp-1176822,LiMnP2O7,4,True,-0.5770227327812095,-0.1047183924628183,-0.8042949520929257,False,-0.5044150349452639,1.7809012610292414,"['Li', 'Mn', 'O', 'P']"
mp-1235035,Rb2LiPu(Cl2O)2,5,False,-0.249531882689327,0.4313735938912355,-0.6298748934937446,False,-0.0776053584069527,-0.4522134525412236,"['Cl', 'Li', 'O', 'Pu', 'Rb']"
mp-1235621,LiLa4Ga2(FeO6)2,5,True,-0.904354031554469,-0.1370122474864441,0.3647798661421171,True,1.7416552702115102,-0.4791495171462131,"['Fe', 'Ga', 'La', 'Li', 'O']"
mp-1395639,NaLi2(RuO2)6,4,False,7.952180218479844,1.975476519438988,-0.8682128617659177,False,1.7152138806570787,0.0305279464722658,"['Li', 'Na', 'O', 'Ru']"
mp-26387,LiNiPO4,4,True,-0.3944556220820129,0.0711818752144372,1.5056874699449956,True,-0.4328807954539074,-0.2455143852563478,"['Li', 'Ni', 'O', 'P']"
mp-775937,LiV2OF5,4,False,-1.1422222473145365,0.1222565556543826,-0.3287023699498159,False,-0.2728959670180662,-0.2921086699475046,"['F', 'Li', 'O', 'V']"
mp-758562,LiFeSiO4,4,True,-0.6191824272661204,-0.099987815835126,1.151024322839982,True,-0.5350579946443228,0.2719348109296597,"['Fe', 'Li', 'O', 'Si']"
mp-776467,Li9Y(NiO4)2,4,True,-0.075310435817523,0.433257113260207,1.0242041482451578,True,-0.3386004609338733,1.1075182372711216,"['Li', 'Ni', 'O', 'Y']"
mp-1246674,LiMnN,3,True,1.9624414905848933,0.1791271029052804,-0.8682128617659177,False,-0.1372192352484653,-1.1355109914871837,"['Li', 'Mn', 'N']"
mp-777767,Li3Cu2(SO4)3,4,False,0.1301098596704353,0.3295566853019942,-0.8682128617659177,False,-0.4751351883277672,1.5132080648926736,"['Cu', 'Li', 'O', 'S']"
mp-1178047,Li2Cr3WO8,4,False,-0.397918619697641,-0.3344054934069835,0.5787423603864557,True,0.9090737779253178,-0.3339585437195728,"['Cr', 'Li', 'O', 'W']"
mp-12645,LiHoO2,3,False,-1.4581695508216477,-0.0355944615796318,2.1009230037747333,True,1.959016719193527,-0.6526423917806934,"['Ho', 'Li', 'O']"
mp-1174891,Li7Mn2(CoO4)3,4,True,0.0790432734088154,0.1999897794389817,0.0406537712219768,True,0.2203305865719579,-0.6184353382660767,"['Co', 'Li', 'Mn', 'O']"
mp-777466,Li2FeF4,3,True,-1.010693770559283,0.4455639192018349,1.6467266710560566,True,-0.4664136023794228,0.5926926957706216,"['F', 'Fe', 'Li']"
mp-771339,Li3CoPCO7,5,True,-0.3538710375484433,0.0585220620156366,1.1266488488121456,True,-0.648034935886463,0.3803791043589358,"['C', 'Co', 'Li', 'O', 'P']"
mp-757276,Li3Ti2(PO4)3,4,False,-0.973034770238692,-0.127104967098826,-0.8682128617659177,False,-0.399931515455484,-0.01687092763127,"['Li', 'O', 'P', 'Ti']"
mp-1176192,Li9Mn2Co5O16,4,True,0.1944673476591641,0.2269023872707969,-0.8682128617659177,False,0.2619110875895413,-0.4011151657292827,"['Co', 'Li', 'Mn', 'O']"
mp-568863,LiEu2CBr3N2,5,False,0.3339520457394334,-0.0915302326279027,-0.3060196371739123,False,0.8481483822594353,1.0192909778764851,"['Br', 'C', 'Eu', 'Li', 'N']"
mp-1175362,Li7Mn5O12,3,True,-0.1658015475185385,0.0618431117128328,-0.2381068581463581,False,0.0673565319248637,-0.5965643265452995,"['Li', 'Mn', 'O']"
mp-774358,Li2MnV(P2O7)2,5,True,-0.7461727384886502,-0.1482979143796129,-0.5318990298318595,False,-0.5900674372257942,0.3253883396572762,"['Li', 'Mn', 'O', 'P', 'V']"
mp-755144,NaLiO,3,False,0.3296116802699189,0.832747403869617,1.083111543812428,True,-0.954079364869104,-1.048639009557721,"['Li', 'Na', 'O']"
mp-531804,Li9Mn15O32,3,True,-0.0939476096293306,-0.1074564164183369,-0.476647955368764,False,0.1479034686521759,0.4504199283296703,"['Li', 'Mn', 'O']"
mp-1642504,Li7Si2(NiO4)3,4,True,-0.1712123674052778,0.2734210945700421,-0.436496132872912,False,0.1421409609405574,-0.0938782718249817,"['Li', 'Ni', 'O', 'Si']"
mp-1188157,Li2(TmGe)3,3,False,1.4493390102779204,0.7917888554041237,-0.8682128617659177,False,2.5567503132154075,-0.3026730812725505,"['Ge', 'Li', 'Tm']"
mp-650024,RbLiBi2(MoO4)4,5,False,-0.0385273998196153,-0.0819611229859754,1.2000461094959625,True,1.1273880965495524,0.7910918331939107,"['Bi', 'Li', 'Mo', 'O', 'Rb']"
mp-721255,Li10Si(PO6)2,4,False,-0.7251726629651988,0.2481827997381899,2.589245000132381,True,-1.0138009612080725,0.2698066309686581,"['Li', 'O', 'P', 'Si']"
mp-849613,Li5Mn6(BO3)6,4,True,-0.5508551822337597,-0.2119194829771212,-0.6637974281824823,False,-0.3926681827008342,0.9360566715372168,"['B', 'Li', 'Mn', 'O']"
mp-1201871,Li7Si3,2,False,1.9032139340112468,1.1807347568019244,-0.8682128617659177,False,-1.4987916687279172,1.2927604937086483,"['Li', 'Si']"
mp-1026401,KLiMg14,3,False,2.2936256107022377,0.9327320264409036,-0.8682128617659177,False,-1.4125842461797615,-0.1079377655649241,"['K', 'Li', 'Mg']"
mp-1235117,LiP4(Br3O)4,4,False,0.8035484496510068,0.880147197935259,-0.6266248302900325,False,-0.7418244405023239,0.8560736289391553,"['Br', 'Li', 'O', 'P']"
mp-758897,LiCuPO4,4,False,-0.1783991258028389,0.1978360897141007,-0.8682128617659177,False,-0.2673503320975669,1.60320019004881,"['Cu', 'Li', 'O', 'P']"
mp-763212,Li2VO2F,4,False,-0.7022058054540311,0.1585646113804671,-0.1179899389091887,False,-0.2829793883191118,-0.5705139696608643,"['F', 'Li', 'O', 'V']"
mp-542008,Li3Fe2(AsO4)3,4,True,0.0603333835847619,0.1611930496391796,0.8425391570877027,True,-0.0527212578774599,1.6312634000531037,"['As', 'Fe', 'Li', 'O']"
mp-777316,Li8MnNi7(PO4)12,5,True,-0.2320811842484319,0.0749816902997934,-0.8682128617659177,False,-0.5634970272919281,1.500589685825133,"['Li', 'Mn', 'Ni', 'O', 'P']"
mp-851254,Li4V3P8O29,4,False,-0.6556932263543741,-0.0961322363665565,-0.5593891477632517,False,-0.8169169370782815,2.1453367826703458,"['Li', 'O', 'P', 'V']"
mp-774317,Li3VP2H2O9,5,False,-0.5286397239716533,0.0857605039311953,0.7763868289621583,True,-0.7749687615091692,-0.2032059110948677,"['H', 'Li', 'O', 'P', 'V']"
mp-1277330,Li2CoO2,3,True,0.2752245130478858,0.4015870151317749,0.711859532438471,True,0.1076101101969216,-0.9811476776391808,"['Co', 'Li', 'O']"
mp-1174501,Li7Mn2(CoO4)3,4,True,0.0862403149898302,0.2018878440035885,-0.0932082069808896,False,0.2073684089973091,-0.61547826093726,"['Co', 'Li', 'Mn', 'O']"
mp-1177113,Li5Mg11(WO4)12,4,False,-0.5258215627353234,-0.2051972754103199,0.3536754835294363,True,1.1139376478627974,1.6627219578121848,"['Li', 'Mg', 'O', 'W']"
mp-1645043,Li7Mn4CoO12,4,True,-0.1051189345082711,0.1023715508847438,-0.4499703532382991,False,0.1567392606432205,0.0116129638931224,"['Co', 'Li', 'Mn', 'O']"
mp-559848,Li4SiO4,3,False,-0.7681870454302283,0.2770310817723737,2.61531321541215,True,-0.9398061923992116,2.1918350207374107,"['Li', 'O', 'Si']"
mp-1222292,LiErSe2,3,False,0.1144161286430831,-3.141273166377821,-0.7573721645893421,False,1.5545383688760643,-0.9759552246613586,"['Er', 'Li', 'Se']"
mp-3635,LiBO2,3,False,-0.8405633391616237,-0.0237150920539479,2.670293451274936,True,-1.006459864109073,-0.8132893359226245,"['B', 'Li', 'O']"
mp-760013,Li3V2(O2F)2,4,False,-0.7520327364326442,0.0871393837856099,-0.8682128617659177,False,-0.224034338955834,-0.2917633358652531,"['F', 'Li', 'O', 'V']"
mp-1100409,LiCaSb,3,False,1.244334726172449,1.0889846483178764,-0.2018821953549908,False,-0.0158850439908114,-1.0209788092116665,"['Ca', 'Li', 'Sb']"
mp-776163,Li8NbFe7(PO4)12,5,True,-0.5759521372135227,-0.0911776149793156,-0.8682128617659177,False,-0.5210451906098155,1.4712021089529723,"['Fe', 'Li', 'Nb', 'O', 'P']"
mp-770851,Li2TiNi2O5,4,True,-0.280275295879442,0.0717402810888849,0.5999354808606574,True,0.6825441053405102,-0.7172180170588964,"['Li', 'Ni', 'O', 'Ti']"
mp-778531,Li3MnV(PO4)3,5,True,-0.6892410214873202,-0.0878751918810372,-0.4165894957501793,False,-0.5920408982442802,1.517086815389433,"['Li', 'Mn', 'O', 'P', 'V']"
mp-752954,Li2CrCo3O8,4,True,0.3401636728939281,0.0854018153615383,-0.8682128617659177,False,0.4142575027233938,-0.424604944753829,"['Co', 'Cr', 'Li', 'O']"
mp-777825,LiEuPSe4,4,False,0.9771303252469704,-2.6451238706242446,-0.8682128617659177,False,0.5312951235878514,-0.1709354657730556,"['Eu', 'Li', 'P', 'Se']"
mp-758197,Li2Fe2NiO6,4,True,0.4927810837090378,0.1856442309455919,-0.8682128617659177,False,0.4426622057361605,-0.3243598090869979,"['Fe', 'Li', 'Ni', 'O']"
mp-778007,Li4Mn3Fe(BO3)4,5,True,-0.5383844308467477,-0.1710556155334317,1.1793269565723028,True,-0.3593497729682662,0.2053740697458324,"['B', 'Fe', 'Li', 'Mn', 'O']"
mp-532743,Li2Ti4Ni(PO5)4,5,True,-1.0812686971536427,-0.2607999576562996,1.187587533881736,True,-0.2792031927119067,0.7987762797769279,"['Li', 'Ni', 'O', 'P', 'Ti']"
mp-755447,Li3Cu3(PO4)2,4,False,-0.1006671862389593,0.2711171366114443,-0.8682128617659177,False,0.0714247378718658,-0.7391321076660021,"['Cu', 'Li', 'O', 'P']"
mp-30248,LiMoS2,3,False,0.8160134865712957,0.2284158294940374,-0.1716836914205059,False,0.4640112741098766,-0.5173135987294373,"['Li', 'Mo', 'S']"
mp-755727,Li4MnV2WO12,5,True,-0.2802484874202901,-0.091784894994407,-0.0794631480151925,False,0.6194969158188462,-0.088845623140969,"['Li', 'Mn', 'O', 'V', 'W']"
mp-779053,Li8Mn3Fe5(BO3)8,5,True,-0.4633024857382873,-0.1387055949615137,1.1976085620931798,True,-0.3884181888371678,0.2292764704202144,"['B', 'Fe', 'Li', 'Mn', 'O']"
mp-27077,Li7Cr4P9O32,4,False,-0.7293036501317396,-0.09901329143359,1.1426960358804714,True,-0.5677418402582354,2.223184981712232,"['Cr', 'Li', 'O', 'P']"
mp-761272,Li3Ni(OF)2,4,True,-0.3027872826504286,0.5438286772294685,-0.5096225549564198,False,-0.1486013612751198,-0.425366988432133,"['F', 'Li', 'Ni', 'O']"
mp-772565,Li2Fe5B3O13,4,True,-0.1311039342241085,-0.1424671513122986,0.1996360296035285,True,0.0804248442068948,0.0837935058942425,"['B', 'Fe', 'Li', 'O']"
mp-753101,Li4MnO3F,4,True,-0.305093379234797,0.3765115638820228,-0.1232712916152199,False,-0.7427409004286553,-0.1506222303943722,"['F', 'Li', 'Mn', 'O']"
mp-1096545,LiMg2Cd,3,False,3.263724358029685,1.9548495262904635,-0.8246755567661996,False,-2.3532367295703227,2.2186862179659745,"['Cd', 'Li', 'Mg']"
mp-775903,Li2MnP2O7,4,True,-0.7472360247432668,-0.0714896224286267,1.831303177166837,True,-0.6868013472221134,0.4713340679130596,"['Li', 'Mn', 'O', 'P']"
mp-764896,Li7Fe8(BO3)8,4,True,-0.3694566305289619,-0.1224464862543734,-0.0852184682717656,False,-0.3129995851973096,0.1727175665033293,"['B', 'Fe', 'Li', 'O']"
mp-1101602,LiCr2(PO4)3,4,False,-0.5407261117709946,-0.1647955114427014,-0.866587830164062,False,-0.5181874310501954,1.3132415470794794,"['Cr', 'Li', 'O', 'P']"
mp-1177974,Li2La3Ti2Nb2O13,5,False,-1.4591624662932392,-0.4147504424306184,-0.8682128617659177,False,1.2693974281463367,-0.4569240271536082,"['La', 'Li', 'Nb', 'O', 'Ti']"
mp-1176075,Li9Mn2Co5O16,4,True,0.1688501592221158,0.2201464060707606,-0.5060339435023224,False,0.3128212479076273,-0.4162159991305384,"['Co', 'Li', 'Mn', 'O']"
mp-6396,Li3V2(PO4)3,4,False,-0.8291392202871115,-0.1236371657719055,0.3992440780314742,True,-0.5772262148886375,1.4694117530328878,"['Li', 'O', 'P', 'V']"
mp-804062,Li4Mn3VO8,4,True,-0.1497038171368066,-0.0201811471218101,-0.8682128617659177,False,0.1722160026529878,-0.7936507204638337,"['Li', 'Mn', 'O', 'V']"
mp-24817,LiBeH3,3,False,1.811484020331568,1.097664596597989,2.445971380568768,True,-1.984607000220624,-0.5417255676539126,"['Be', 'H', 'Li']"
mp-760813,Li4Mn5Co(PO4)6,5,True,-0.5406640273416516,-0.1403329139560595,-0.5330500938831733,False,-0.33292729141561,0.1346233654329983,"['Co', 'Li', 'Mn', 'O', 'P']"
mp-975906,LiAl3,2,False,2.0863494811314043,0.4508833827695263,-0.8682128617659177,False,-0.981902922309042,-1.0535357509668506,"['Al', 'Li']"
mp-1028360,LiMg14Ni,3,True,2.214245976059595,1.5693367432334258,-0.8682128617659177,False,-1.1775444316897157,-0.2602261377164253,"['Li', 'Mg', 'Ni']"
mp-1178558,BaLi4O3,3,False,-0.2094912636313282,0.5986082104254049,1.480838028366618,True,0.0627485169806463,-0.1749415030732297,"['Ba', 'Li', 'O']"
mp-1030649,Li6RuN4,3,False,1.620387617132182,0.5395980721210926,-0.8682128617659177,False,-0.5000051221661548,-0.6034580348810714,"['Li', 'N', 'Ru']"
mp-21284,LiMnAs,3,True,1.840421704363728,0.5017158186603196,-0.8682128617659177,False,0.7071950206932266,-0.9652484888958928,"['As', 'Li', 'Mn']"
mp-757635,Li4MnP2O9,4,True,-0.6322644531880871,0.0634373053060458,0.2247563097822157,True,-0.6151662172282715,-0.2603057050640628,"['Li', 'Mn', 'O', 'P']"
mp-775742,Li2Fe3TeO8,4,True,0.1991361279789628,0.1000194211285696,-0.8198004619606332,False,0.6081152608703858,-0.338653333650274,"['Fe', 'Li', 'O', 'Te']"
mp-1185433,LiSc2Pd,3,False,1.6820944593003504,-1.5098555023909672,-0.8682128617659177,False,0.5187952300377755,-1.022781404369682,"['Li', 'Pd', 'Sc']"