material_id,formula_pretty,n_elements,contains_transition_metal,formation_energy_per_atom,energy_per_atom,band_gap,is_semiconductor,density,volume,elements
mp-1238728,LiCoBP2H2O11,6,True,0.3257201057984366,0.2098549275381348,-0.8676034749152225,False,-0.9955727498619,2.7887450413622297,"['B', 'Co', 'H', 'Li', 'O', 'P']"
mp-1110580,Li3AuF6,3,False,-0.1476368609309103,0.905487019079461,-0.591483521899903,False,0.2055881291878923,-0.8460712849539982,"['Au', 'F', 'Li']"
mp-1245579,LiCdN,3,False,2.2989937831220955,-0.9131340467623592,-0.8682128617659177,False,0.5500130244296916,-1.0982973935775877,"['Cd', 'Li', 'N']"
mp-636380,Li(MoO2)2,3,False,-0.0149151255326744,-0.2637652454289311,0.0906912026291178,True,0.7094865969731057,-0.7142311777872988,"['Li', 'Mo', 'O']"
mp-752488,Li3FeOF3,4,True,-0.7409939517214452,0.440745589362966,1.5105625647505625,True,-0.3339855565206073,-0.3552057387294776,"['F', 'Fe', 'Li', 'O']"
mp-799536,Li7VO5F,4,False,0.3503464210243687,0.6135613324566527,-0.1664700483645514,False,-0.7814156730786342,-0.8695202192461917,"['F', 'Li', 'O', 'V']"
mp-862492,LiErTl2,3,False,1.841207895805286,1.2104994924283756,-0.8682128617659177,False,4.32588494640717,-0.964528245998583,"['Er', 'Li', 'Tl']"
mp-1222810,Li2InP2HO8,5,False,-0.5605914981924588,0.1394041557261075,1.7866825177658825,True,-0.2401024299740281,-0.3342637925112942,"['H', 'In', 'Li', 'O', 'P']"
mp-765018,Li4V3P8O29,4,False,-0.6485492527848037,-0.0942481673459383,-0.1737826905729022,False,-0.8018614508325633,2.115499313113556,"['Li', 'O', 'P', 'V']"
mp-1174882,Li4MnCo2O7,4,True,0.2027812503399869,0.2306070013573639,-0.8682128617659177,False,0.2366688556427518,-0.5077715310846456,"['Co', 'Li', 'Mn', 'O']"
mp-755348,Li2TiNi2O5,4,True,-0.2829372493833286,0.0710382482380972,0.595128095705167,True,0.6892942088414278,-0.7183174208955363,"['Li', 'Ni', 'O', 'Ti']"
mp-1176778,LiCoPO4,4,True,-0.4637296798805735,-0.003180656773931,1.365596203935016,True,-0.4716681979213897,-0.2251070237539358,"['Co', 'Li', 'O', 'P']"
mp-1177390,Li5Fe4(P2O7)4,4,True,-0.2096997042295466,0.0308339809756759,-0.8302277480725401,False,-0.4809527491032594,1.7794108640870652,"['Fe', 'Li', 'O', 'P']"
mp-1235867,Ba6LiNb2Ir(ClO6)2,6,False,-0.9434397892568672,0.0140618694989204,0.176005361726543,True,0.8993756524551638,0.1471400730285283,"['Ba', 'Cl', 'Ir', 'Li', 'Nb', 'O']"
mp-580554,CsLi3Br4,3,False,0.1490921906164188,1.099964414501006,1.8979294728429223,True,-0.3742444881617291,0.1844431428660894,"['Br', 'Cs', 'Li']"
mp-1275688,Li3Mn2CoO6,4,True,-0.0014542661324156,0.0665494421881796,-0.5785509787351344,False,0.2775353926433271,-0.5805006392321418,"['Co', 'Li', 'Mn', 'O']"
mp-777579,Li8Fe7Sn(PO4)12,5,True,-0.5048950228811017,-0.0491812311878501,-0.8682128617659177,False,-0.4926128176627569,1.4740518869487154,"['Fe', 'Li', 'O', 'P', 'Sn']"
mp-765293,Li2CrCo3O8,4,True,0.3360225349588137,0.0843096795049769,-0.8682128617659177,False,0.6360450579806408,-0.4819737870712354,"['Co', 'Cr', 'Li', 'O']"
mp-861714,Li2VCrP2(O4F)2,6,False,-0.9065243337531704,-0.0929782562199888,0.5088660015066591,True,-0.3955091036292628,-0.1915835403589534,"['Cr', 'F', 'Li', 'O', 'P', 'V']"
mp-1236071,RbLiCu2H3(SO5)2,6,False,0.3739655528878068,0.4305232366203629,-0.5269562253762143,False,-0.4961885598532302,-0.5263084656835865,"['Cu', 'H', 'Li', 'O', 'Rb', 'S']"
mp-1176622,LiMnF4,3,True,-0.9773488091265924,0.37543243461676,0.7393496503698638,True,-0.3548432380190308,-0.8275176348417389,"['F', 'Li', 'Mn']"
mp-756262,KLi4CrO5,4,False,-0.068027095037958,0.3823825122593099,-0.1507614095466126,False,-0.6463188375523717,0.1317129360220857,"['Cr', 'K', 'Li', 'O']"
mp-849266,LiB3H3SeO9,5,False,-0.008381016269477,0.1684103128657077,-0.4854502098788165,False,-0.9474268772626032,3.122626080040694,"['B', 'H', 'Li', 'O', 'Se']"
mp-26211,LiNiP2O7,4,True,-0.3456518082827184,0.0455046959946194,-0.8682128617659177,False,-0.3929850541346371,0.2146607910316035,"['Li', 'Ni', 'O', 'P']"
mp-758409,Li5Cr2Fe3(PO4)6,5,True,-0.5237331851665442,-0.0900359700895436,-0.1189378740102713,False,-0.4327062040046156,0.1153746491822763,"['Cr', 'Fe', 'Li', 'O', 'P']"
mp-1185421,LiZnNi2,3,True,2.01569502293444,1.0019590605081476,-0.8682128617659177,False,2.232295601786348,-1.1097719094879763,"['Li', 'Ni', 'Zn']"
mp-3054,Li2CO3,3,False,-0.3016392642817027,0.1104819147619407,2.55613498124457,True,-1.076046739262925,-0.9073236275815816,"['C', 'Li', 'O']"
mp-753410,LiFe3OF5,4,True,-0.4495933444451262,0.2063164641576545,0.732714104662286,True,0.1705472424298156,-0.5546294800228169,"['F', 'Fe', 'Li', 'O']"
mp-776021,Li4Sb(TeO4)3,4,False,0.1712735792736925,0.4150626311778886,-0.8382174867816646,False,0.7812471573891199,-0.5319465796541907,"['Li', 'O', 'Sb', 'Te']"
mp-1197133,Li2Be2H4NF7,5,False,-0.6186782781457714,0.5303084832061288,3.729949474985027,True,-1.261936256367635,0.64406949132592,"['Be', 'F', 'H', 'Li', 'N']"
mp-752701,LiCuF3,3,False,-0.4099944554215833,0.1184878963615275,-0.7633983234462238,False,0.1160267950804333,-0.6149865989224517,"['Cu', 'F', 'Li']"
mp-779025,LiV4OF11,4,False,-1.2498131316198966,0.11264337817177,0.0426850607242964,True,-0.3047562727473973,0.0299956175131975,"['F', 'Li', 'O', 'V']"
mp-755687,Li3Fe4(OF3)3,4,True,-0.5501164196339968,0.2991233706769827,0.5086628725564273,True,-0.0173536214717138,-0.6418086342036863,"['F', 'Fe', 'Li', 'O']"
mp-1035479,RbLiMg14O15,4,False,-0.8022624616663351,0.3918192978536743,-0.010060756685938,False,-0.4341548637760365,-0.1981406610856538,"['Li', 'Mg', 'O', 'Rb']"
mp-26911,Li4CrP2O9,4,False,-0.6657921497401215,0.0456906102914497,-0.7491115872799088,False,-0.6832943783519971,-0.2341570093415995,"['Cr', 'Li', 'O', 'P']"
mp-768423,Li3VS4,3,False,0.7725722687011736,0.6049761084277449,-0.1300422566229521,False,-1.1030427159522216,0.5873456271612947,"['Li', 'S', 'V']"
mp-807564,Li4FeO3F,4,True,3.128462830488816,1.3043469296570227,-0.8682128617659177,False,-0.7656204785678125,-0.6839123670406377,"['F', 'Fe', 'Li', 'O']"
mp-776356,Li2SbS2,3,False,1.035975059455489,0.8705249204869236,0.1243428987175469,True,-0.3779878879718343,1.167653323720376,"['Li', 'S', 'Sb']"
mp-755495,Li5Cu3(TeO5)2,4,False,0.3966124581590933,0.5174572099911239,-0.69345425491635,False,0.7228530301858045,-0.6023475689988921,"['Cu', 'Li', 'O', 'Te']"
mp-863111,LiV2CrO6,4,False,-0.4543313782461923,-0.3050514160301342,-0.8676711845652999,False,0.293552153424641,-0.9441840136577624,"['Cr', 'Li', 'O', 'V']"
mp-989583,Rb2LiInCl6,4,False,-0.007057398176121,1.0227395628182956,1.046751461720906,True,-0.4660888449087038,-0.4445213949269996,"['Cl', 'In', 'Li', 'Rb']"
mp-540013,LiBi2(PO4)3,4,False,-0.3073730350290076,0.0825379326645561,-0.8682128617659177,False,0.3170090701273004,0.3733460981788796,"['Bi', 'Li', 'O', 'P']"
mp-777427,Li4Mn2V3Sn3O16,5,True,-0.3154683973797182,-0.0408540644862002,-0.1591574061562013,False,0.5569912938959352,-0.2937721866789036,"['Li', 'Mn', 'O', 'Sn', 'V']"
mp-1185356,LiMgO3,3,False,0.7295867768409671,0.6643946959631224,-0.8682128617659177,False,-1.1033635998486686,-1.057305274630319,"['Li', 'Mg', 'O']"
mp-729051,LiTiNF6,4,False,-0.2709758184596573,0.5121953596507964,-0.8682128617659177,False,-0.8893662717903602,1.6583648014445638,"['F', 'Li', 'N', 'Ti']"
mp-771571,Li(FeO2)2,3,True,0.3585677080058733,0.0316708036186236,-0.8682128617659177,False,0.3581064676871762,-0.4207916515963231,"['Fe', 'Li', 'O']"
mp-705085,LiCrP4O13,4,False,-0.4649211598853525,-0.0734968459936012,-0.8682128617659177,False,-0.8792202643900523,0.3003489493073387,"['Cr', 'Li', 'O', 'P']"
mp-862493,LiEr2Al,3,False,1.9090519857110229,-3.5409156462190885,-0.8682128617659177,False,1.8723179114378623,-0.9683780188236234,"['Al', 'Er', 'Li']"
mp-781824,Li5La4TiNb7O28,5,False,-1.3612837259995003,-0.4092072087481127,-0.3435307833167494,False,0.7321006232183892,0.4806169550977645,"['La', 'Li', 'Nb', 'O', 'Ti']"
mp-861394,Li2Si2NiO6,4,True,-0.6801224455519032,0.0369368110638947,1.6780085293917792,True,-0.5700516852315,0.9928008120270424,"['Li', 'Ni', 'O', 'Si']"
mp-1100479,Li9Mn7O16,3,True,-0.1673162548844902,0.0395221057056766,-0.072421344407151,False,0.258339006716844,-0.4231909642581293,"['Li', 'Mn', 'O']"
mp-781494,Li4Ti3Mn3(CuO8)2,5,True,-0.3722835140678422,-0.0741427297283902,-0.7973208581349622,False,0.2503350618888942,-0.4019517230666024,"['Cu', 'Li', 'Mn', 'O', 'Ti']"
mp-1177118,Li5Fe8(BO3)8,4,True,-0.3421240850714298,-0.1601223590627133,0.2336262739423448,True,-0.320063405457238,0.1569260732658798,"['B', 'Fe', 'Li', 'O']"
mp-754803,Li(FeO2)2,3,True,0.3664392627883608,0.033746756499098,-0.8682128617659177,False,0.2195268198114678,-0.8087148375481151,"['Fe', 'Li', 'O']"
mp-25996,Li3Co(PO4)2,4,True,-0.5308569427183524,0.0873927122518256,-0.3148218916839648,False,-0.7505989573302997,0.7299080539376694,"['Co', 'Li', 'O', 'P']"
mp-778150,Li9Nb3P8O29,4,False,-0.7468472182513066,-0.0455828555064332,-0.7732839323575121,False,-0.6072224267601443,2.314080499404413,"['Li', 'Nb', 'O', 'P']"
mp-1235298,LiPr2Pa2O8,4,False,-1.8680689434487376,-0.52008372900367,-0.8682128617659177,False,3.1027568984553326,-0.7357625737294343,"['Li', 'O', 'Pa', 'Pr']"
mp-1097038,LiAl2H6BrO6,5,False,-0.0851739027380148,0.408367083369602,2.3758241830886617,True,-0.9271792012526264,-0.2531679078231186,"['Al', 'Br', 'H', 'Li', 'O']"
mp-673098,LiBi(PO3)4,4,False,-0.6055834327375101,-0.020697659810135,2.3944443368599253,True,-0.1126509682681963,0.1856856257549603,"['Bi', 'Li', 'O', 'P']"
mp-755981,Li4Fe3NiO8,4,True,0.377238045629234,0.2163460342885674,-0.8682128617659177,False,0.4730763414808732,-0.8272282801547716,"['Fe', 'Li', 'Ni', 'O']"
mp-861176,Li2FePO5,4,True,-0.4399120927274164,0.0544287293238617,0.2327460484913396,True,-0.4173396875657223,0.9788853712527172,"['Fe', 'Li', 'O', 'P']"
mp-1302334,Li3V4O8,3,False,-0.5418352744354513,-0.1834370704444149,-0.1265213548189314,False,0.0406825075648841,-0.3509283269580364,"['Li', 'O', 'V']"
mp-759381,Li3Bi2(PO4)3,4,False,-0.5544144442575549,0.099514511247971,1.239656254791196,True,0.6713051028599397,0.2218321502574094,"['Bi', 'Li', 'O', 'P']"
mp-1235608,Sr2LiCuBrO2,5,False,0.0954191104216671,0.6965498332659462,-0.8682128617659177,False,0.085638050427608,-0.7959863657898222,"['Br', 'Cu', 'Li', 'O', 'Sr']"
mp-1177659,Li3Fe8(BO3)8,4,True,-0.3065709994228172,-0.199805519979231,0.3550296765309828,True,-0.3843414165315045,0.1781698831591638,"['B', 'Fe', 'Li', 'O']"
mp-766948,LiMn10O20,3,True,0.1589100868875961,-0.2209497427825281,-0.8682128617659177,False,0.229261573916568,0.815086917536726,"['Li', 'Mn', 'O']"
mp-1639828,LiCo(CO3)2,4,True,0.2850589565226252,-0.0453469943624308,-0.4329075214188139,False,-0.8959407760897895,0.2405653345572161,"['C', 'Co', 'Li', 'O']"
mp-1031307,KLiMg6O7,4,False,-0.4266709300846485,0.5082247629030849,0.59329993515308,True,-0.5484015815779908,-0.7409717161096722,"['K', 'Li', 'Mg', 'O']"
mp-778513,LiFeF4,3,True,-0.8691385570263995,0.4374339589028972,1.8391574965758068,True,-0.7137137690213176,-0.2462467040260527,"['F', 'Fe', 'Li']"
mp-775752,Li6VSn3(PO4)6,5,False,-0.5927585234730686,0.0491260871815622,0.1736355239738374,True,-0.239509079627285,0.2015598377314592,"['Li', 'O', 'P', 'Sn', 'V']"
mp-850226,Li8Mn7Fe(BO3)8,5,True,-0.5610863120716632,-0.1812256726875946,1.1843374706780243,True,-0.4145712461905025,0.242042689537429,"['B', 'Fe', 'Li', 'Mn', 'O']"
mp-757841,Li2VSi7O16,4,False,-1.1478911235766345,-0.2152322321404316,-0.0321341026111444,False,-0.8635938328242649,0.7793263371550091,"['Li', 'O', 'Si', 'V']"
mp-1174682,Li4MnCo2O7,4,True,0.1276325668662621,0.2107881561314873,-0.0077586285833084,False,0.2384800093189648,-0.5082529804508347,"['Co', 'Li', 'Mn', 'O']"
mp-24585,LiZnPH2O5,5,False,-0.1890187938597298,0.3249988119383529,1.981076923137874,True,-0.6680333883528086,0.0536442111320478,"['H', 'Li', 'O', 'P', 'Zn']"
mp-1223047,Li2UBr6,3,False,0.1917178100605733,0.7855770290925609,-0.6441616296600595,False,0.334291989826719,0.4121087256223393,"['Br', 'Li', 'U']"
mp-680436,Rb2LiSn4,3,False,1.851050296561937,1.2017378795551434,-0.1315995785747312,False,0.3389029529954087,4.643735189750733,"['Li', 'Rb', 'Sn']"
mp-1175438,Li9Mn2Co5O16,4,True,0.1384810157058842,0.2121371991602887,-0.36804167664474,False,0.3535888867291826,-0.4279211274901747,"['Co', 'Li', 'Mn', 'O']"
mp-26271,Li2Sn(PO3)4,4,False,-0.6454233746854181,0.0114896113978183,1.8977940535427675,True,-0.4872997190793223,1.6083181941197344,"['Li', 'O', 'P', 'Sn']"
mp-26379,LiMnP2O7,4,True,-0.6389667730671589,-0.1210547977109809,0.2961222809637124,True,-0.5163740679774064,-0.4788570579442163,"['Li', 'Mn', 'O', 'P']"
mp-757835,Li2VCo3O8,4,True,0.2183116491742357,0.065061328697133,-0.6091557405700834,False,0.6743051998379497,-0.4931874754752474,"['Co', 'Li', 'O', 'V']"
mp-770967,Li2MnP2O7,4,True,-0.7599064811438444,-0.0748311821571094,2.0223121000349638,True,-0.6988284445107344,0.4826914740381902,"['Li', 'Mn', 'O', 'P']"
mp-759102,Li3V2(O2F)2,4,False,-0.7560660683283361,0.0860756794478855,-0.1875954591886766,False,-0.3552692960995419,0.1005838112654285,"['F', 'Li', 'O', 'V']"