material_id,formula_pretty,n_elements,contains_transition_metal,formation_energy_per_atom,energy_per_atom,band_gap,is_semiconductor,density,volume,elements
mp-1175404,Li9Mn2Co5O16,4,True,0.3017872493491988,0.2552056977605245,0.2317304037401799,True,0.2849552259524008,-0.4080186257090823,"['Co', 'Li', 'Mn', 'O']"
mp-1120820,Li2Fe4O7,3,True,0.374345713498379,0.023061967510983,0.0255545192547333,True,-0.0413442278009622,-0.7841177945153833,"['Fe', 'Li', 'O']"
mp-752747,Li5VO3F2,4,False,-0.6244028534938381,0.3902148070730031,0.2097924771151267,True,-0.7457526430443335,0.0109174159168293,"['F', 'Li', 'O', 'V']"
mp-766529,LiFeSiO4,4,True,-0.5635581670780035,-0.0853181163472088,1.0527099109277096,True,-0.5915622144620901,-0.2017615550133229,"['Fe', 'Li', 'O', 'Si']"
mp-1176605,LiMnPO4,4,True,-0.6493805930457037,-0.1362267966357182,1.4157013449922344,True,-0.3255737494958381,-0.3163656872428223,"['Li', 'Mn', 'O', 'P']"
mp-773050,Li2CrO4,3,False,-0.017800239884496,0.1553311108543484,0.8164032321578563,True,-0.9508612189342448,0.9009191933583616,"['Cr', 'Li', 'O']"
mp-770727,Li3Al2FeO6,4,True,-0.7797120168801428,0.0909108367136587,0.9457286638055415,True,-0.1052287969709162,-0.0283778602084875,"['Al', 'Fe', 'Li', 'O']"
mp-705312,LiFePO4,4,True,-0.5385404556853638,-0.0783121829595771,1.6856597198505174,True,-0.127135892092036,1.311483314973046,"['Fe', 'Li', 'O', 'P']"
mp-776089,LiFe2OF5,4,True,-0.6153285966938573,0.3007950007853799,0.4282238082645686,True,-0.0987308566147382,-0.3213084477550312,"['F', 'Fe', 'Li', 'O']"
mp-1174494,Li7Co5O12,3,True,0.3061648652629745,0.3089376193967978,-0.844582193888933,False,0.3361899760735909,-0.0311722717490531,"['Co', 'Li', 'O']"
mp-780318,LiCoOF2,4,True,-0.1744311694973646,0.458781829625797,-0.6701621352897507,False,-0.0202292228501063,-0.0020833680638702,"['Co', 'F', 'Li', 'O']"
mp-770680,Li9Mn2AlO8,4,True,-0.2449750474887221,0.3304787062818852,0.7382662959686267,True,-0.7136852835947701,1.1012880581350275,"['Al', 'Li', 'Mn', 'O']"
mp-1222886,Li2Al2Si4O13,4,False,-1.07849674011442,-0.0904927009827767,-0.6640005571327142,False,-1.1079297766233065,-0.349394604788414,"['Al', 'Li', 'O', 'Si']"
mp-781617,Li5Mn6(BO3)6,4,True,-0.5544111023524826,-0.2128572802506182,-0.8682128617659177,False,-0.4183245708926394,-0.1377062717022539,"['B', 'Li', 'Mn', 'O']"
mp-755664,Li2(TaS2)3,3,False,0.4952307056409887,-0.0253327043442546,-0.8682128617659177,False,1.9192148656566932,-0.1527655815176631,"['Li', 'S', 'Ta']"
mp-1045357,LiTi2O4,3,False,-1.3249233851898106,-0.3646856045619505,-0.8682128617659177,False,-0.0170696815204421,-0.8090251469340306,"['Li', 'O', 'Ti']"
mp-760326,Li2VOF5,4,False,-1.0328286911482871,0.3824183164798156,1.1967283366421746,True,-0.6017058810764276,-0.6467419608023514,"['F', 'Li', 'O', 'V']"
mp-770906,Li3Mn(BO3)2,4,True,-0.5963951475989533,-0.0193482655156453,0.0642844390989622,True,-0.7272362265117707,0.1544848116574571,"['B', 'Li', 'Mn', 'O']"
mp-504849,Cs2Li2SiO4,4,False,-0.5445111601323595,0.4005589679141223,1.7407076653633802,True,0.3773020761093002,-0.4117368502882703,"['Cs', 'Li', 'O', 'Si']"
mp-778233,Li5V6O5F19,4,False,-1.073764525369073,0.2180787118607488,-0.8682128617659177,False,-0.6273064575803778,1.4258168410335312,"['F', 'Li', 'O', 'V']"
mp-697767,LiMoP2O7,4,False,-0.6309135399595728,-0.1633402576958588,1.932258265432124,True,-0.3050888719901794,0.373580466846547,"['Li', 'Mo', 'O', 'P']"
mp-1202818,LiZr2(AsO4)3,4,False,-0.5857933809399192,-0.1050025406368126,1.7616976568873504,True,-0.1304562421061563,2.0318690787180618,"['As', 'Li', 'O', 'Zr']"
mp-761869,Sr3Li3La5O12,4,False,-1.4297539073806336,-0.0349770154560587,1.2603076980647792,True,1.364611763109567,1.6692050922935937,"['La', 'Li', 'O', 'Sr']"
mp-758889,LiFe4(PO4)3,4,True,-0.3633309739806268,-0.1733472513105479,1.3133920637254004,True,-0.5277505734904557,2.0987711349065057,"['Fe', 'Li', 'O', 'P']"
mp-26856,LiSn(PO3)4,4,False,-0.5380024562419435,-0.0048014969983582,-0.8572438984533922,False,-0.2546784336838899,1.2751001620160425,"['Li', 'O', 'P', 'Sn']"
mp-26341,LiSbP2O7,4,False,-0.5754402918018947,0.0284550259591613,1.8719289672132309,True,-0.4357330939061676,-0.3016056969871674,"['Li', 'O', 'P', 'Sb']"
mp-1078358,LiOsO3,3,False,0.2523893429356764,-0.0183591800987873,-0.8682128617659177,False,3.014814116668803,-0.953380628816984,"['Li', 'O', 'Os']"
mp-758904,Li5Co4(SiO4)4,4,True,-0.438074817551463,0.0330453188503682,-0.5800405910368349,False,-0.4877466355452408,0.7894117831595983,"['Co', 'Li', 'O', 'Si']"
mp-863375,Li3V3P8O29,4,False,-0.6050184870519325,-0.1038862959292839,-0.273383585836643,False,-0.856151917679449,2.1987056296609118,"['Li', 'O', 'P', 'V']"
mp-764547,LiFe2(BO3)2,4,True,-0.3235883128029821,-0.1792062145677375,0.2366054985457469,True,-0.3479533193432869,0.1646262516690473,"['B', 'Fe', 'Li', 'O']"
mp-766030,Li6Mn2O5F2,4,True,-0.3940434872570242,0.3062551658836659,-0.3029049932703561,False,-0.4568210741378295,-0.3955528825265011,"['F', 'Li', 'Mn', 'O']"
mp-772960,Li4Cr2(PO4)3,4,False,-0.7157796411882349,-0.0670941279608594,0.0226430043014092,True,-0.5914555773858922,0.155956946156742,"['Cr', 'Li', 'O', 'P']"
mp-1021398,LiMg6Sn,3,False,2.115998009979631,1.527341086672091,-0.8682128617659177,False,-0.832053946083043,-0.1995082087553029,"['Li', 'Mg', 'Sn']"
mp-28603,NaLiSe,3,False,0.6622872279278615,-0.2462815595459263,0.7822098588688086,True,-0.4237149389023179,-0.5681004626329981,"['Li', 'Na', 'Se']"
mp-1236161,LiCo6(OF5)2,4,True,0.1372605074234228,0.44881690013747,-0.8031438880416112,False,0.3655640081260671,-0.5880670376183262,"['Co', 'F', 'Li', 'O']"
mp-774855,Li4Fe3Ni3(SnO8)2,5,True,0.3484027739447893,0.2050531600176735,-0.8682128617659177,False,0.7577809618873915,-0.3889303411449963,"['Fe', 'Li', 'Ni', 'O', 'Sn']"
mp-761214,Li3Fe8(BO3)8,4,True,-0.297626000292061,-0.1974464692929995,0.1536611772010267,True,-0.373061204428427,0.1706904812314419,"['B', 'Fe', 'Li', 'O']"
mp-1173923,Li2MnO3,3,True,0.1336743278539892,0.2285095561737715,-0.8682128617659177,False,-0.2204202219483266,-0.9106596713515815,"['Li', 'Mn', 'O']"
mp-761222,Li3Fe4(BO3)4,4,True,-0.3597084944820653,-0.1418298745415085,0.2544808461661602,True,-0.3048236728940106,0.1573827516402459,"['B', 'Fe', 'Li', 'O']"
mp-1235214,LiAl4Cd2O8,4,False,-0.3545708807863605,0.3157008214033065,-0.8682128617659177,False,0.4913740420247197,-0.738108569466897,"['Al', 'Cd', 'Li', 'O']"
mp-1176121,Li9Mn2Co5O16,4,True,0.209079976118192,0.230756153010738,-0.8455978386400929,False,0.2363824477442335,-0.3933321072079361,"['Co', 'Li', 'Mn', 'O']"
mp-752662,Li5(CoO3)2,3,True,0.3859685735335058,0.4464940590841466,-0.8682128617659177,False,-0.5269738437898164,-0.4335399399854134,"['Co', 'Li', 'O']"
mp-777840,LiFe(SiO3)2,4,True,-0.8313885118297987,-0.1578607801988037,1.3521896932197062,True,-0.7699070570934409,-0.4451592856491757,"['Fe', 'Li', 'O', 'Si']"
mp-1023253,LiCaMg6,3,False,2.21034662623525,1.6249044562952402,-0.8682128617659177,False,-1.4307441978905346,-0.0907233264577631,"['Ca', 'Li', 'Mg']"
mp-777338,Li5Ni2(PO4)3,4,True,-0.5317578787564091,0.1228303433460047,1.7176863843370902,True,-0.4148364326420303,1.439523976549615,"['Li', 'Ni', 'O', 'P']"
mp-774345,Li2Mn2(PO4)3,4,True,-0.5343935008570909,-0.0951243977622399,-0.2175908341729296,False,-0.5074973571010591,0.0718429930060228,"['Li', 'Mn', 'O', 'P']"
mp-778338,Li4V2Co3Sn3O16,5,True,-0.0067594305614735,0.10281540562702,-0.0170348506439022,False,0.7210109616365986,-0.3258530199031115,"['Co', 'Li', 'O', 'Sn', 'V']"
mp-973058,LiLu2Al,3,False,1.916227315326764,-4.141724422045062,-0.8682128617659177,False,2.258475063407936,-0.9798551999542174,"['Al', 'Li', 'Lu']"
mp-937761,Li7ZrO6,3,False,-0.4236743783281933,0.3576614183686337,-0.8682128617659177,False,-0.6569975578777999,-0.8297040982234537,"['Li', 'O', 'Zr']"
mp-683616,Li5Ti7In(PO4)12,5,False,-1.074227281493658,-0.2153994625184211,0.8109864601516704,True,-0.5449463748477709,1.4147359387330036,"['In', 'Li', 'O', 'P', 'Ti']"
mp-765723,Na3Li6Mn5O9,4,True,0.1953325246276235,0.2553327113484124,-0.8682128617659177,False,-0.3555384556539099,-0.4496769895718869,"['Li', 'Mn', 'Na', 'O']"
mp-865624,Li2HoTl,3,False,1.8412714396553664,-4.564470884083149,-0.8682128617659177,False,3.001562389605297,-1.0150696410552806,"['Ho', 'Li', 'Tl']"
mp-754258,Li4Fe3NiO8,4,True,0.2406714012794708,0.1803295259177773,-0.0944269806822814,False,-0.20549741790589,-0.7061836294662599,"['Fe', 'Li', 'Ni', 'O']"
mp-764354,LiMnF5,3,True,-0.6953984933071448,0.4998290081609983,0.2898252835065223,True,-0.4860316987959688,-0.243124620283476,"['F', 'Li', 'Mn']"
mp-780674,Li3Mn4(BO3)4,4,True,-0.5355806269647222,-0.2231306917054579,-0.8682128617659177,False,-0.4091237038410844,0.2156104261523352,"['B', 'Li', 'Mn', 'O']"
mp-1101526,LiCo2(PO3)5,4,True,-0.5117807890200023,-0.078145913496007,1.2949750389043688,True,-0.5053006450069083,0.4258096538610856,"['Co', 'Li', 'O', 'P']"
mp-1177204,Li4V3P8O29,4,False,-0.6620365702666172,-0.0978051565748685,-0.2507685627108181,False,-0.8175643475432807,2.14663175337191,"['Li', 'O', 'P', 'V']"
mp-15793,LiTbSe2,3,False,0.0521594317767384,0.5704617528186294,0.148312114844919,True,1.3608664698023287,-0.9697420970993518,"['Li', 'Se', 'Tb']"
mp-1072633,LiTi(SeO)2,4,False,1.302206467942502,0.59140578903487,-0.8682128617659177,False,0.2050677144795633,-0.9488901414638488,"['Li', 'O', 'Se', 'Ti']"
mp-864824,LiTbAu2,3,False,1.3917378611065296,0.9559573446306848,-0.8682128617659177,False,5.266755739666904,-1.0071940666326495,"['Au', 'Li', 'Tb']"
mp-860887,Li3Mn(PO4)2,4,True,-0.6695578584627848,0.0087709789409806,-0.0586762854414546,False,-0.5573523763720567,0.0720482590522808,"['Li', 'Mn', 'O', 'P']"
mp-773399,Li3Fe(PO4)2,4,True,-0.6465107663518072,0.0291906110990946,0.8215491655637327,True,-0.4531725073993383,-0.4061146110512698,"['Fe', 'Li', 'O', 'P']"
mp-1210959,LiGd(MoO4)2,4,False,-0.5724735733504762,-0.4802907321709226,1.148451356137043,True,0.9823466219838652,-0.3485959903601879,"['Gd', 'Li', 'Mo', 'O']"
mp-756394,Li2V2S5,3,False,0.8324463807827107,0.3824320090283861,-0.772606835856739,False,-0.645932024973047,-0.2873912309798387,"['Li', 'S', 'V']"
mp-1078188,LiOsO3,3,False,0.2615575693056409,-0.0159412580405036,-0.8682128617659177,False,2.964969772588731,-0.9507876631963816,"['Li', 'O', 'Os']"
mp-767614,Li3Mn4(PO4)6,4,True,-0.4757074377730595,-0.1050276143772628,-0.8417383885856855,False,-0.5021549413399142,0.057260840937903,"['Li', 'Mn', 'O', 'P']"
mp-1235562,K2LiH2(SeO3)2,5,False,0.5048458564906398,0.6085820833441914,-0.3929588278731938,False,-0.8511069809319909,-0.5782134797362325,"['H', 'K', 'Li', 'O', 'Se']"
mp-1517740,LiSm(FeO3)4,4,True,0.6548642729931003,0.1014137516115263,-0.8682128617659177,False,0.371909259098202,-0.600466072960568,"['Fe', 'Li', 'O', 'Sm']"
mp-772060,Li3NbFe3O8,4,True,-0.1621028996105388,-0.0673471239383422,-0.2597739461711013,False,0.3107411833140414,-0.7725455030111992,"['Fe', 'Li', 'Nb', 'O']"
mp-8189,LiReO3,3,False,-0.1440066260204224,-0.1937394197173435,-0.8682128617659177,False,2.639059792065894,-0.9376098069226804,"['Li', 'O', 'Re']"
mp-861572,LiMn2OF3,4,True,-0.7469128649367808,0.0600465807757495,0.3745300557532521,True,-0.1809325587583493,-0.1919590730407532,"['F', 'Li', 'Mn', 'O']"
mp-675504,Li19(Mn3As4)3,3,True,1.723353547151251,0.7255307570750709,-0.8682128617659177,False,0.0485821130056949,0.6751095944016652,"['As', 'Li', 'Mn']"
mp-771000,Li4Ti5Ni3O16,4,True,-0.7265576803290523,-0.1411189854877563,-0.6098328370708566,False,0.2056203262772049,-0.4119217738771811,"['Li', 'Ni', 'O', 'Ti']"
mp-1663732,Li3FeO3,3,True,0.04148379749579,0.3459691161938575,0.1577237562056668,True,-0.6026689273174239,-0.3990197240893541,"['Fe', 'Li', 'O']"
mp-1174671,Li4MnCo2O7,4,True,0.1263222903502656,0.2104425989470733,-0.217049156972311,False,0.2820105916595885,-0.5196365051604619,"['Co', 'Li', 'Mn', 'O']"
mp-760684,LiTeHO4,4,False,0.4520468192781686,0.487465409941598,0.2831220281488674,True,0.3438726532546124,-0.7893843605656428,"['H', 'Li', 'O', 'Te']"
mp-775157,Li6MnV3(PO4)6,5,True,-0.7250834121720026,-0.0967612696684524,-0.8682128617659177,False,-0.3092915933460025,1.1512916832176174,"['Li', 'Mn', 'O', 'P', 'V']"
mp-777961,Li4V(BO3)2,4,False,-0.7054025827877549,0.0187964730718418,1.1316593629178675,True,-0.747905050218081,0.1922817382780383,"['B', 'Li', 'O', 'V']"
mp-760238,LiVCr(P2O7)2,5,False,-0.7358995060286564,-0.1969632344109581,0.0369297404677235,True,-0.5621273552997513,1.0246481806997965,"['Cr', 'Li', 'O', 'P', 'V']"
mp-776978,Li4Mn3V3(SbO8)2,5,True,-0.3097822161815875,-0.0952213627540981,-0.6197184459821456,False,0.5406340762741861,-0.349373012574813,"['Li', 'Mn', 'O', 'Sb', 'V']"
mp-1101535,Li2MnP2O7,4,True,-0.7597078932612629,-0.0747788088841965,2.051562668868366,True,-0.6576285255975367,0.4443986614839793,"['Li', 'Mn', 'O', 'P']"
mp-1198740,Li7Nd3Zr2O12,4,False,-1.2257040634284575,-0.0434710604006074,2.026306969389525,True,1.0271230777593672,1.8672096382913568,"['Li', 'Nd', 'O', 'Zr']"
mp-1180582,LiAl2BrO6,4,False,0.3823385326911734,0.4579682123933571,-0.196668552299037,False,-0.6581522370614237,-0.4172930930263764,"['Al', 'Br', 'Li', 'O']"
mp-849386,Li9Nb7V12O48,4,False,-0.6780392583994008,-0.2984802887521757,0.0768107243632669,True,-0.1152566610269026,1.5655091373730787,"['Li', 'Nb', 'O', 'V']"
mp-757142,LiNb(PO3)4,4,False,-0.6414166142538262,-0.1302692923935869,-0.199038390051744,False,-0.7013161032680224,1.7128666941738315,"['Li', 'Nb', 'O', 'P']"
mp-554076,BaLiBS3,4,False,0.4852032241402646,0.5582381222651923,0.5897113236989818,True,-0.403692438544884,0.293336694351163,"['B', 'Ba', 'Li', 'S']"
mp-1111923,K2LiRuF6,4,False,-0.7471165770306578,0.6184045421771583,-0.8682128617659177,False,-0.0981784612988125,-0.8386953170975399,"['F', 'K', 'Li', 'Ru']"
mp-1175505,Li9Co7O16,3,True,0.3098539728307828,0.2941201844391463,-0.3691927406960538,False,0.3483721151473271,-0.4174712939877326,"['Co', 'Li', 'O']"
mp-644256,LiH2CO3,4,False,0.8001325995613653,0.3913922674051915,-0.8112013364008125,False,-1.5572079538347003,-0.3084453133804171,"['C', 'H', 'Li', 'O']"
mp-1221039,NaLiAl4(SiO6)2,5,False,-1.0453129011706748,-0.0202341478751649,1.2526565076060423,True,-0.6592146049667811,0.1007167355517167,"['Al', 'Li', 'Na', 'O', 'Si']"
mp-756119,Li2MnF4,3,True,-1.1036133780416997,0.3923754589537896,1.797380642478099,True,-0.7972062694841849,-0.6953942756236632,"['F', 'Li', 'Mn']"
mp-1178012,Li2CuS2,3,False,1.0870519035619943,0.885724301579379,-0.8682128617659177,False,-0.7874674711284824,-0.1830457569812503,"['Cu', 'Li', 'S']"
mp-861059,LiMnPO4,4,True,-0.6298827947952262,-0.1310846726767978,1.3968780622707382,True,-0.5731696517146875,0.841199552059943,"['Li', 'Mn', 'O', 'P']"
mp-775771,Li4Mn3V3(SnO8)2,5,True,-0.3290069327761779,-0.0978163138285157,-0.3340514323059236,False,0.5214120759428754,-0.3501930622710811,"['Li', 'Mn', 'O', 'Sn', 'V']"
mp-774249,Li3MnCr2O6,4,True,-0.3621144394715354,-0.1013616207245761,-0.4568767375461859,False,0.2129281461744254,-0.5881774081754411,"['Cr', 'Li', 'Mn', 'O']"
mp-850284,Li2CoOF3,4,True,-0.4910633316168908,0.5122442820815015,-0.2197575429754039,False,-0.3366013550955941,-0.8075245527078516,"['Co', 'F', 'Li', 'O']"
mp-754548,Li4Cr3Fe3(SnO8)2,5,True,-0.0614385634943977,-0.0234317735233489,-0.8682128617659177,False,0.7653929760274968,-0.4105887379260962,"['Cr', 'Fe', 'Li', 'O', 'Sn']"
mp-752764,LiVF3,3,False,-1.179886233832459,0.256496637326801,0.9292752188367516,True,-0.1336451787609692,-0.92786415522911,"['F', 'Li', 'V']"
mp-757489,Li4CoCu3(PO4)4,5,True,-0.2792977974861427,0.1397844992237638,-0.8682128617659177,False,0.0146164542618562,-0.4027142108120006,"['Co', 'Cu', 'Li', 'O', 'P']"
mp-1100747,Li9Mn2Co5O16,4,True,0.1997158284849955,0.2282865609429082,-0.8682128617659177,False,0.2596397709060311,-0.4004285134618308,"['Co', 'Li', 'Mn', 'O']"
mp-776762,LiVF5,3,False,-1.2138729205189618,0.366330155566754,0.4902458477353956,True,-0.5393658241630117,0.7537113656232363,"['F', 'Li', 'V']"
mp-1222537,LiZr5TlF22,4,False,-2.0496215694552804,0.1065209688423797,2.6692100968736985,True,0.5447018658858991,1.0423242221772175,"['F', 'Li', 'Tl', 'Zr']"
mp-864755,LiAcTe2,3,False,0.6093652188669899,0.8060455878724003,-0.4912732397854655,False,1.8523114589998977,-0.8783585728917184,"['Ac', 'Li', 'Te']"
mp-1185472,LiGdIn2,3,False,3.014773320518767,-4.262734261546954,-0.8682128617659177,False,1.946593130878282,-0.9545969734647314,"['Gd', 'In', 'Li']"
mp-780441,Li24Mn7Cr5O36,4,True,-0.2493113545170946,0.1176114634079743,-0.1893559100906869,False,-0.058971755252047,0.5780514078953694,"['Cr', 'Li', 'Mn', 'O']"
mp-756538,Li3Mn3O8,3,True,0.0466576102358575,0.0423644999465877,-0.8682128617659177,False,-0.0969857896547224,-0.4039017456537733,"['Li', 'Mn', 'O']"
mp-1175978,Li9Mn2Co5O16,4,True,0.1644270057141678,0.2189798946864997,-0.5980513579574025,False,0.3236199648709932,-0.4193493084470045,"['Co', 'Li', 'Mn', 'O']"
mp-721236,Li10Sn(PS6)2,4,False,0.8611747065545482,0.7957326108412568,0.832721257826491,True,-1.1255530467386423,1.7059057075626356,"['Li', 'P', 'S', 'Sn']"
mp-766043,Li4MnFe3(PO4)4,5,True,-0.5846111572961408,-0.0976330665556576,1.8002921574314237,True,-0.2201185565709367,0.5281104051095382,"['Fe', 'Li', 'Mn', 'O', 'P']"
mp-1223171,Li19V12O32,3,False,-0.5145375336798537,0.0047699160096094,-0.3990526963801535,False,-0.1187697197137274,0.4463947258413442,"['Li', 'O', 'V']"
mp-1174762,Li4MnCo2O7,4,True,0.1585432114546278,0.2189401722761627,-0.692100061914803,False,0.2309751404938772,-0.5062538555826575,"['Co', 'Li', 'Mn', 'O']"
mp-16341,Li2HgGe,3,False,1.8707346959545008,1.3973830743157585,-0.8682128617659177,False,2.1876517515967198,-1.0420406126863968,"['Ge', 'Hg', 'Li']"
mp-725121,K3LiMn4(MoO4)6,5,True,-0.1863350268414028,-0.2342920187165511,1.1866395987806535,True,-0.2446912613175272,2.455587165351526,"['K', 'Li', 'Mn', 'Mo', 'O']"
mp-758852,Li4Mn3(PO4)4,4,True,-0.6465128996419182,-0.0927069685380269,-0.7491115872799088,False,-0.3672263142732397,0.4766990013009511,"['Li', 'Mn', 'O', 'P']"
mp-777884,Li32Mn13Cr3O48,4,True,-0.2369753631748715,0.1263064466407722,-0.0285454911570463,False,-0.0297644511116261,1.168882250978982,"['Cr', 'Li', 'Mn', 'O']"
mp-779467,Li9V6(P8O29)2,4,False,-0.681048495387697,-0.0926158557504152,-0.1930799408449389,False,-0.804692345528183,2.1341338418060505,"['Li', 'O', 'P', 'V']"
mp-1235411,LiSi2(AgO)8,4,False,0.7580667527525714,0.5920341514236126,-0.8682128617659177,False,1.595391250428695,-0.4143035920814356,"['Ag', 'Li', 'O', 'Si']"
mp-867664,LiCoO2,3,True,0.3452445867122891,0.2560826232577527,-0.8682128617659177,False,0.7331149447929762,-0.7539394492842142,"['Co', 'Li', 'O']"
mp-776969,Li32Ti3Cr13O48,4,False,-0.4400182473640532,0.0694011588497185,-0.1204951959620497,False,-0.1527974007269813,1.225628171261728,"['Cr', 'Li', 'O', 'Ti']"
mp-15788,LiYS2,3,False,-0.1252489000026467,0.2947386790100015,0.4320832583189752,True,-0.3197159368992503,-1.0037388195142531,"['Li', 'S', 'Y']"
mp-1174064,Li3MnCoO5,4,True,0.0271518436249412,0.1891269362686189,-0.5786186883852111,False,0.1563598937977732,-0.7213589841514313,"['Co', 'Li', 'Mn', 'O']"
mp-675734,Li7B18O,3,False,1.7178924327911336,0.4457772467732993,-0.8682128617659177,False,-1.3045428233998324,-0.5478756193389415,"['B', 'Li', 'O']"
mp-561743,Li2CoSiO4,4,True,-0.5908658731960873,0.0711537607285564,1.4337121119128016,True,-0.3672055446182097,-0.250233793483211,"['Co', 'Li', 'O', 'Si']"
mp-25995,Li4Co(PO4)2,4,True,-0.6765679697248012,0.0994639303255555,1.3702681697903512,True,-0.7079710505912681,0.7327810881921737,"['Co', 'Li', 'O', 'P']"
mp-1236256,LiLa4Ho4O12,4,False,-1.8206444824460168,-0.3150317404633216,-0.8682128617659177,False,2.4922565482898418,-0.3309771256553004,"['Ho', 'La', 'Li', 'O']"
mp-773363,Li4Mn3WO8,4,True,-0.172728794538526,-0.0965095398639858,-0.0206234620980003,False,0.8282166091038722,-0.2683950137019684,"['Li', 'Mn', 'O', 'W']"
mp-768449,Li24Ti7Cr5O36,4,False,-0.762218525589444,0.018070348263154,0.0301587754599919,True,-0.2104467091971541,0.6286538127628096,"['Cr', 'Li', 'O', 'Ti']"