material_id,formula_pretty,n_elements,contains_transition_metal,formation_energy_per_atom,energy_per_atom,band_gap,is_semiconductor,density,volume,elements
mp-1173891,Li2CoO3,3,True,0.4301719269217465,0.4048032387882839,-0.8682128617659177,False,-0.0214931039197932,-0.9265435784440568,"['Co', 'Li', 'O']"
mp-18997,LiMnPO4,4,True,-0.725526990399712,-0.1563087673890029,1.441701850621925,True,-0.2892547296403951,-0.3314469631444866,"['Li', 'Mn', 'O', 'P']"
mp-1276783,Li2Al2FeO6,4,True,-0.6352149261254371,0.0664422731737091,-0.842415485086458,False,-0.1692414690978897,-0.033347453196901,"['Al', 'Fe', 'Li', 'O']"
mp-1174569,Li7Mn2(CoO4)3,4,True,0.0879869427556301,0.2023484794233654,-0.0148004321913499,False,0.2184244107109478,-0.6180022427367503,"['Co', 'Li', 'Mn', 'O']"
mp-27227,LiAg3O2,3,False,1.2861819966206007,0.8946636872655571,-0.3754220285031681,False,2.2928948680893533,-0.7537399072721856,"['Ag', 'Li', 'O']"
mp-772563,Li2VO2F3,4,False,-0.8399992752398937,0.2821492169499143,0.8867535585881938,True,-0.6437304613900615,-0.1800114597917025,"['F', 'Li', 'O', 'V']"
mp-705372,LiCo(PO3)5,4,True,-0.3986184539463657,-0.0215829520988366,-0.8581241239043969,False,-0.8622181723842611,2.351804038540659,"['Co', 'Li', 'O', 'P']"
mp-758115,Li2SnP2O7,4,False,-0.6354373285836793,0.082575629365421,1.8872990577807824,True,-0.322514237467801,0.560786871255358,"['Li', 'O', 'P', 'Sn']"
mp-774752,Li2MgTi3O8,4,False,-1.389247779266638,-0.2518082722244971,1.3803569076518722,True,-0.2300844926471895,0.5061155053326416,"['Li', 'Mg', 'O', 'Ti']"
mp-754308,Li3Cu3(PO4)2,4,False,-0.1029281412800701,0.2705208584605685,-0.3923494410224986,False,0.0702803009079155,-0.7389107013574499,"['Cu', 'Li', 'O', 'P']"
mp-752883,Li2(FeO2)3,3,True,0.2552887895606768,0.0520595285170261,-0.8682128617659177,False,0.266073350102015,-0.5967779140813512,"['Fe', 'Li', 'O']"
mp-795,LiSi,2,False,1.9933985148814324,1.0004642761353093,-0.8682128617659177,False,-1.254709471767859,-0.5215209153834499,"['Li', 'Si']"
mp-756113,LiFeF3,3,True,-0.882774675346058,0.3704768489090648,-0.8682128617659177,False,-0.3422123574226184,-0.5288099682092291,"['F', 'Fe', 'Li']"
mp-1175683,Li9Mn2Co5O16,4,True,0.1802009692124324,0.2231399375072105,-0.8682128617659177,False,0.2903943335122741,-0.4096314708642216,"['Co', 'Li', 'Mn', 'O']"
mp-3838,Li5ReN4,3,False,1.2723115045943618,-1.0521046617490446,1.0596840048856746,True,0.3544016760084723,-0.617625156614753,"['Li', 'N', 'Re']"
mp-1647689,Li4TiCo5O12,4,True,0.1785778894083475,0.1275450983336953,-0.800164663438209,False,0.4307017351608388,-0.010951715352655,"['Co', 'Li', 'O', 'Ti']"
mp-776424,Na2LiCuP2O7,5,False,-0.4132407479410718,0.2210108783076823,0.0581905705920025,True,-0.5452533967882499,0.6594533454074211,"['Cu', 'Li', 'Na', 'O', 'P']"
mp-1639032,Li7Mn5O12,3,True,-0.1839552735615313,0.0570554578233956,-0.3333066261550731,False,0.0769963122270106,0.0402375488427583,"['Li', 'Mn', 'O']"
mp-775291,Li2Mn2Cr3O12,4,True,0.0236069740526923,-0.1420988365812775,0.3096642109791768,True,-0.6368389355939066,1.9950829160731065,"['Cr', 'Li', 'Mn', 'O']"
mp-1030989,LiLaMg6O8,4,False,-0.975371312833929,0.2621705642836731,2.435002417256241,True,0.0912091348145076,-0.7203912945329646,"['La', 'Li', 'Mg', 'O']"
mp-807769,Li2Co4O3F8,4,True,0.5271569800535113,0.6109556914609963,-0.8474259991921799,False,-0.0487676870345996,-0.6519102206935378,"['Co', 'F', 'Li', 'O']"
mp-1094594,LiMg,2,False,2.1404767504677737,1.1521539017014608,-0.8682128617659177,False,-1.6794534492897908,-0.8756888965513575,"['Li', 'Mg']"
mp-1191694,Sr2LiGe3,3,False,1.5581743954398195,1.0230130589150173,-0.8682128617659177,False,0.3667867881220585,0.5471052571725353,"['Ge', 'Li', 'Sr']"
mp-1218768,Sr2LiLaTi4O12,5,False,-1.6463882941399155,-0.3634072376997415,0.375681119804566,True,0.7273260678945939,-0.5397770567631197,"['La', 'Li', 'O', 'Sr', 'Ti']"
mp-864781,LiYb2Hg,3,False,1.8516386594332577,-7.026483206511541,-0.8682128617659177,False,4.066441613943224,-0.9680542951303596,"['Hg', 'Li', 'Yb']"
mp-771969,Li2CuCSO7,5,False,0.1137168724134466,0.2166618780795596,-0.7866904430728227,False,-0.6271869143155193,-0.4420673473189317,"['C', 'Cu', 'Li', 'O', 'S']"
mp-761204,Li6MnV3(PO4)6,5,True,-0.7421505224719649,-0.1012623520807104,-0.5891136841471967,False,-0.4029438507628573,1.2575398804152895,"['Li', 'Mn', 'O', 'P', 'V']"
mp-780675,Li3MnV(PO4)3,5,True,-0.730359951612907,-0.0987194232679726,-0.6069890317676091,False,-0.4962016263438637,1.3859036982542188,"['Li', 'Mn', 'O', 'P', 'V']"
mp-1113971,Rb2LiTmCl6,4,False,-0.5423392573556163,0.8315685722019238,2.7019815675111225,True,-0.3072704474647515,-0.4229185766605002,"['Cl', 'Li', 'Rb', 'Tm']"
mp-756412,Li4V3Cr3(WO8)2,5,False,-0.4513681341127714,-0.3308086139849238,0.2036986086081684,True,1.025336646993556,-0.3665728278461658,"['Cr', 'Li', 'O', 'V', 'W']"
mp-583853,LiCrPO4,4,False,-0.6315333331572008,-0.1518730816332487,0.926431413533504,True,-0.5947581116864648,-0.2064707130890184,"['Cr', 'Li', 'O', 'P']"
mp-752431,LiVPO4,4,False,-0.712670111666061,-0.1496804423743684,1.0495952670241535,True,-0.2222587071484343,-0.3804357954693776,"['Li', 'O', 'P', 'V']"
mp-768934,Li4Cr3CoO8,4,True,-0.2830188334772532,-0.0466829601204976,-0.8682128617659177,False,0.3655980846425047,-0.4108168738091496,"['Co', 'Cr', 'Li', 'O']"
mp-758468,LiP4WO12,4,False,-0.5505601637447606,-0.1523579154142304,1.7648800104409843,True,-0.4225630966435724,1.8778672670480696,"['Li', 'O', 'P', 'W']"
mp-768754,LiBi2(SO4)3,4,False,0.1522966243627788,0.2655244863548995,-0.4482099023362887,False,0.3073703295761456,2.010786864435448,"['Bi', 'Li', 'O', 'S']"
mp-758252,LiV2F5,3,False,-1.102713000557368,0.1727234508913402,0.7110470166375429,True,-0.3156043188418747,-0.6419749276099069,"['F', 'Li', 'V']"
mp-781788,K2LiNb6(PO8)3,5,False,-1.048292877062415,-0.3478436737837464,0.6432019472600655,True,-0.2628504431021221,1.9595027926231232,"['K', 'Li', 'Nb', 'O', 'P']"
mp-773015,K2Li3MnO4,4,True,0.1014450089645831,0.4936055849747669,-0.2751440367386533,False,-0.6470674987254765,0.2638903832542779,"['K', 'Li', 'Mn', 'O']"
mp-757325,Li3Ti(PO4)2,4,False,-0.917921095467794,-0.0304809933743386,-0.6971105760205255,False,-0.4985369820191406,-0.4128008472232636,"['Li', 'O', 'P', 'Ti']"
mp-755795,Li2CrO3,3,False,-0.3025551324980386,0.0897181392671916,0.3341073946570903,True,-0.3662736200281448,-0.8971777722381653,"['Cr', 'Li', 'O']"
mp-763362,LiMnF3,3,True,-1.0938149433018427,0.2746634441160263,1.5704856050689928,True,-0.3139815710968881,-0.5432344033644447,"['F', 'Li', 'Mn']"
mp-4527,Li8SnO6,3,False,-0.1859754983876312,0.5424971027827097,1.7138269342826833,True,-0.2016091442616518,-0.8624481163501321,"['Li', 'O', 'Sn']"
mp-1641094,Li7Mn4CoO12,4,True,-0.0743082425094726,0.110497206688679,-0.8682128617659177,False,0.1695979193078998,0.0056137075449854,"['Co', 'Li', 'Mn', 'O']"
mp-1174177,Li5Co3O8,3,True,0.3083889056693701,0.3411048772077993,-0.7710495139049611,False,0.1555817972403674,-0.8294194477932153,"['Co', 'Li', 'O']"
mp-867905,LiLa2Ru,3,False,2.036977988494571,0.548674564134058,-0.8682128617659177,False,1.905714730734801,-0.9577884110167412,"['La', 'Li', 'Ru']"
mp-771209,Li7Cr3(WO8)2,4,False,-0.2611114416009986,-0.0575820716322482,0.1159469021079584,True,0.6348375743240291,-0.3930110689265559,"['Cr', 'Li', 'O', 'W']"
mp-1274697,Li2FeNiO4,4,True,0.2943153387249629,0.2432559283638857,-0.8682128617659177,False,0.4606938530219939,-0.8224380353933868,"['Fe', 'Li', 'Ni', 'O']"
mp-1176979,Li6FeS4,3,True,0.842509456493052,0.7987925616530462,-0.8682128617659177,False,-0.9465421957510975,-0.7746656178086373,"['Fe', 'Li', 'S']"
mp-779771,Li11Mn6O16,3,True,-0.1517780565503278,0.1347019205568835,-0.5459149273978645,False,-0.0162222320019566,0.4656135312376321,"['Li', 'Mn', 'O']"
mp-753050,Li2FeNiO4,4,True,0.2818765946603719,0.2399754777688115,-0.8682128617659177,False,0.4746817255871599,-0.8243868685197316,"['Fe', 'Li', 'Ni', 'O']"
mp-1211228,Li3Sm2(BO3)3,4,False,-1.2347286305155794,-0.1477349717077249,2.403517429970287,True,0.6394757449570944,0.7913644971590581,"['B', 'Li', 'O', 'Sm']"
mp-772324,Li3MgNi3O8,4,True,0.4724209283815337,0.4199403891455354,-0.6945376093175872,False,0.300225735622296,-0.4406163352504333,"['Li', 'Mg', 'Ni', 'O']"
mp-772750,Li3MgPCO7,5,False,-0.6712571301546977,0.0976388414594878,2.929553701421002,True,-0.8672666612091752,-0.4561489613466484,"['C', 'Li', 'Mg', 'O', 'P']"
mp-769036,Li8Nb2S9,3,False,0.6643976605294931,0.6034851593432083,-0.1032292351923326,False,-0.7958670773429842,2.7310208157284053,"['Li', 'Nb', 'S']"
mp-1177996,Li2MgCr3(SO4)6,5,False,-0.157935088427572,0.0625751690850715,-0.291462062407288,False,-0.6860217334444852,0.1177808246634235,"['Cr', 'Li', 'Mg', 'O', 'S']"
mp-1206595,LiTiSe2,3,False,0.5648886507031157,0.469384770356039,-0.8682128617659177,False,0.6322045237507802,-1.0209006108545746,"['Li', 'Se', 'Ti']"
mp-1175680,Li9Mn2Co5O16,4,True,0.2844923498248049,0.2506445408509575,-0.8682128617659177,False,0.3410416857973138,-0.4243542685699942,"['Co', 'Li', 'Mn', 'O']"
mp-759237,LiFe2(BO3)2,4,True,-0.3121117288638554,-0.1761795129636984,0.1597550457079864,True,-0.3135427830641997,0.1426409444352907,"['B', 'Fe', 'Li', 'O']"
mp-1267368,Li2V2(SiO3)3,4,False,-0.8990276930920632,-0.1997362004069155,0.3173831110879924,True,-0.4381766112181783,1.9593289639263087,"['Li', 'O', 'Si', 'V']"
mp-1100645,Li9Mn2Co5O16,4,True,0.1901788831478888,0.2257713972058102,-0.8682128617659177,False,0.2529083988044746,-0.398386888209669,"['Co', 'Li', 'Mn', 'O']"
mp-1273123,Li2TiFeO4,4,True,-0.6538663623645348,-0.0835272124298156,-0.0413426150216609,False,0.0867978284443818,-0.3404925912294208,"['Fe', 'Li', 'O', 'Ti']"
mp-757763,LiNiPO4,4,True,-0.33088197309368,0.0879480546270743,1.07092380679851,True,-0.305351987222583,1.5674277411616429,"['Li', 'Ni', 'O', 'P']"
mp-776556,Li2MnVP2(HO5)2,6,True,-0.4736027083347883,-0.0234207569645944,-0.3639113879900233,False,-0.4167327682483704,-0.1841575400434879,"['H', 'Li', 'Mn', 'O', 'P', 'V']"
mp-752549,LiAgF2,3,False,-0.1664313419815415,-0.6808562328298365,0.3475816150224772,True,0.9590039356908212,-1.0968008416486716,"['Ag', 'F', 'Li']"
mp-757716,LiTi(Si2O5)2,4,False,-1.2867560395923985,-0.2692051686797312,-0.6028587431128931,False,-0.9171240021388588,0.0803300327880587,"['Li', 'O', 'Si', 'Ti']"
mp-756565,Li2Ti7O15,3,False,-1.4564093723306253,-0.456939074667945,0.1718750730718263,True,0.028963730121143,-0.4937394792093279,"['Li', 'O', 'Ti']"
mp-1174722,Li5Mn3O8,3,True,-0.1099653663930607,0.1204117699657195,-0.8682128617659177,False,-0.0310424452884219,-0.8141540524726655,"['Li', 'Mn', 'O']"
mp-1210976,LiH(CO2)2,4,False,0.7065036148309743,0.1454703064086096,1.1195393355540275,True,-1.7834546719682265,-0.8138826640541469,"['C', 'H', 'Li', 'O']"
mp-1223469,KLiZn3O4,4,False,0.1769547366948221,0.7275087596634806,0.2442566890044844,True,0.407380506654866,-0.901266283834226,"['K', 'Li', 'O', 'Zn']"
mp-1178166,K2LiNbO4,4,False,-0.583184132114254,0.1494744405954469,1.7093580973775804,True,-0.6265922957915824,0.4117391591370571,"['K', 'Li', 'Nb', 'O']"
mp-1235305,Sr2LiPr2Fe2(RuO6)2,6,True,-0.4234144635039197,-0.089266050352525,-0.8682128617659177,False,1.6340592736748147,-0.4872149519215271,"['Fe', 'Li', 'O', 'Pr', 'Ru', 'Sr']"
mp-504806,K2Li14Pb3O14,4,False,0.0730544186647591,0.5961637532199912,0.4983032960945962,True,0.4169228720883167,-0.1187776793335847,"['K', 'Li', 'O', 'Pb']"
mp-862554,LiEr2Ir,3,False,1.488468120061118,0.4890696852138363,-0.8682128617659177,False,4.885277835416734,-1.006612777681433,"['Er', 'Ir', 'Li']"
mp-1175909,Li9Mn2Co5O16,4,True,0.153355356341026,0.216059985844741,0.2092507999145088,True,0.2794546478615888,-0.4063811540683179,"['Co', 'Li', 'Mn', 'O']"
mp-757408,Li2Fe5(Si2O7)2,4,True,-0.5458612600719956,-0.196846084967123,1.0665903891935613,True,-0.1476418338949778,-0.3830502334362772,"['Fe', 'Li', 'O', 'Si']"
mp-862618,LiErHg2,3,False,1.6287276133397093,-7.827648926839718,-0.8682128617659177,False,4.969030179912329,-0.9913151675811592,"['Er', 'Hg', 'Li']"
mp-754734,Li2Mn3(BO3)3,4,True,-0.526856830287818,-0.2365177436570748,-0.7080795393330517,False,-0.4230074406422018,-0.1459100775575871,"['B', 'Li', 'Mn', 'O']"
mp-1112999,Cs2LiTlCl6,4,False,0.1654814420111567,1.083702450716583,0.1634113668121618,True,0.0606817108516823,-0.3769521926625787,"['Cl', 'Cs', 'Li', 'Tl']"
mp-758683,LiMnPO4F,5,True,-0.6967907820438931,-0.030177515699737,-0.2196221236752492,False,-0.3034061320352597,-0.2151013960267535,"['F', 'Li', 'Mn', 'O', 'P']"
mp-1035212,LiHfMg14O15,4,False,-0.9524634913452796,0.2681891160911528,-0.6986678979723032,False,0.1663957521992894,-0.3200449796436639,"['Hf', 'Li', 'Mg', 'O']"
mp-1087492,Li2ZnSi,3,False,1.9907039957674983,1.301911504372555,-0.8682128617659177,False,-0.5795283377697604,-0.8811068794236665,"['Li', 'Si', 'Zn']"
mp-758296,Li2Co2Si2O7,4,True,-0.4992024289431905,-0.0117443106916082,0.7761159903618496,True,-0.4254626143670685,-0.3146257714791599,"['Co', 'Li', 'O', 'Si']"
mp-1175252,Li7Mn4CoO12,4,True,-0.0738637401700459,0.1106144345982099,-0.4851116616284299,False,0.1346286892613814,-0.6080420322885536,"['Co', 'Li', 'Mn', 'O']"
mp-762624,Li2Mn(NiO3)2,4,True,0.4175480212132186,0.2185015969193123,-0.4972316889922699,False,0.4398966096335778,-0.9311551202151596,"['Li', 'Mn', 'Ni', 'O']"
mp-759568,LiBiP2O7,4,False,-0.5674236788320732,0.0368724784401667,1.7331241845547205,True,0.4477933864633571,-0.8151684832852799,"['Bi', 'Li', 'O', 'P']"
mp-1222430,LiTaWO7,4,False,-0.2846153830406417,-0.3169339096837749,-0.8220348804131841,False,1.1906793496144796,-0.3992783925032512,"['Li', 'O', 'Ta', 'W']"
mp-774605,Li4Co3Sn2Sb3O16,5,True,0.0770217730215527,0.2263628664841303,-0.8682128617659177,False,1.0414921048647243,0.6832112726161128,"['Co', 'Li', 'O', 'Sb', 'Sn']"
mp-1195868,LiCeF5,3,False,-2.0232899889829965,0.2833041061354935,0.6820672864044492,True,0.5438806368941875,0.7966035591392083,"['Ce', 'F', 'Li']"
mp-1021353,KLiMg6,3,False,2.360719630824284,0.949223183040546,-0.8682128617659177,False,-1.4925184823137314,-0.0271821593932603,"['K', 'Li', 'Mg']"
mp-1025455,LiNb2O,3,False,1.374618458268891,-0.0615312174873516,-0.8682128617659177,False,1.3492732146800044,-0.8910117215398593,"['Li', 'Nb', 'O']"
mp-21242,LiYbPb,3,False,1.5629101203696043,-7.2565298432693,-0.8682128617659177,False,3.787837812239613,-0.6463844286786182,"['Li', 'Pb', 'Yb']"
mp-1174737,Li5Mn3O8,3,True,-0.1863136598183592,0.1002765534760674,-0.8640148634611238,False,0.0395696658124338,-0.8259009880725969,"['Li', 'Mn', 'O']"
mp-758625,LiCo2C2O7,4,True,0.3176685188280319,-0.0523155296387057,-0.0430353562735931,False,-0.6604775179822161,-0.3328928317931513,"['C', 'Co', 'Li', 'O']"
mp-31961,LiMn2(PO3)5,4,True,-0.6677246646485224,-0.170454748553798,2.1301058629580587,True,-0.6212975506230123,0.500894997110524,"['Li', 'Mn', 'O', 'P']"
mp-1235454,Sr2LiV2(Si2O7)2,5,False,-1.0903630522925074,-0.1924070038449258,-0.3532132632778058,False,-0.2775058998651867,-0.3462892415603147,"['Li', 'O', 'Si', 'Sr', 'V']"
mp-755934,LiMnSnO4,4,True,-0.1778901934737377,0.0463927730920914,0.0726804357085503,True,0.7117059248443235,-0.7509117963204845,"['Li', 'Mn', 'O', 'Sn']"
mp-1175081,Li7Mn2(CoO4)3,4,True,0.0783518478890498,0.1998074308637567,-0.5321021587820914,False,0.2701218515114106,-0.6295378019126014,"['Co', 'Li', 'Mn', 'O']"
mp-32107,Li3Mo2(PO4)3,4,False,-0.6301313586008008,-0.1222697119818753,1.2339009345346237,True,-0.3300537818442415,0.2270630917590574,"['Li', 'Mo', 'O', 'P']"
mp-1110667,Rb2LiTaCl6,4,False,0.0620727994886984,0.7767118764111652,-0.8682128617659177,False,-0.1075135356930453,-0.4746787956331933,"['Cl', 'Li', 'Rb', 'Ta']"
mp-1177012,Li6Mn3Sb(PO4)6,5,True,-0.5581988806165886,-0.0179408893267305,0.4960688776420452,True,-0.4578272628678592,0.1663382420051959,"['Li', 'Mn', 'O', 'P', 'Sb']"
mp-862730,LiGaRh2,3,False,1.5875665828406424,0.5309568840602684,-0.8682128617659177,False,3.6077150584394593,-1.0900005301197175,"['Ga', 'Li', 'Rh']"
mp-761082,Li5MnCr3O8,4,True,-0.2894362559518908,-0.0267086499983674,0.6989946989237796,True,0.1119311023786678,0.5910780089620452,"['Cr', 'Li', 'Mn', 'O']"
mp-772334,Li3Fe3TeO8,4,True,0.1546132402564719,0.1507697113097189,-0.0051179522302935,False,0.501409847465564,-0.7650638839639302,"['Fe', 'Li', 'O', 'Te']"
mp-754770,LiMnF3,3,True,-1.1008637551083795,0.27280447195893,1.5117813384519545,True,-0.5530319557706654,-0.4583096136863802,"['F', 'Li', 'Mn']"
mp-779308,SrLiLa7(CoO8)2,5,True,-1.2656447931014474,-0.2090996866596899,-0.446178612833969,False,1.878678052308181,-0.1847604066498612,"['Co', 'La', 'Li', 'O', 'Sr']"
mp-681439,LiZr2(PO4)3,4,False,-1.2993606725874425,-0.329234163824445,1.996379304055349,True,-0.5334020887127651,0.3021563552655747,"['Li', 'O', 'P', 'Zr']"
mp-753961,Li2MnO2F,4,True,-0.4748763114742493,0.2147406642100091,-0.4396107767764688,False,-0.1538189451067178,-0.5853517248415255,"['F', 'Li', 'Mn', 'O']"
mp-882849,Li3Fe8(BO3)8,4,True,-0.2978323361772312,-0.1975008859345653,0.1825054881339661,True,-0.3447301656918952,0.1522492349523764,"['B', 'Fe', 'Li', 'O']"
mp-1372137,Li8(NiO2)5,3,True,3.132690745579722,1.1835077562239256,-0.8682128617659177,False,0.2337177166127333,-0.6428248796874639,"['Li', 'Ni', 'O']"
mp-1235174,LiEu2Cr2O8,4,False,-0.5724386664480566,-0.4284245669669757,-0.8682128617659177,False,0.7768747758549297,-0.7081646454952115,"['Cr', 'Eu', 'Li', 'O']"
mp-1283454,Li2NiO2F,4,True,-0.0821571847299131,0.4818525251717577,-0.8307694252731593,False,0.1430992083167701,-0.6402635128660725,"['F', 'Li', 'Ni', 'O']"
mp-756743,Li3CrClO4,4,False,-0.1071702534564041,0.3170106088988982,0.9594060131211608,True,-0.8149141425170057,-0.5857418106212792,"['Cl', 'Cr', 'Li', 'O']"
mp-761234,Li3Fe8(BO3)8,4,True,-0.3035472578964998,-0.1990080733368807,0.2755385473402066,True,-0.3683379490395002,0.1675821145318964,"['B', 'Fe', 'Li', 'O']"
mp-774964,Li2CrP3O10,4,False,-0.7151240665724676,-0.0860187970959571,1.3358039579009926,True,-0.9925715802995376,1.45933831902262,"['Cr', 'Li', 'O', 'P']"
mp-762412,Li2Mn3O6,3,True,-0.1099570598941931,-0.0990244863118584,-0.2865192579516435,False,0.1711447405431468,-0.5805753491191813,"['Li', 'Mn', 'O']"
mp-1306381,Li3MnCo3O8,4,True,0.3109821059601418,0.1531502072297697,-0.8204775584614057,False,0.4621654156762739,-0.4163811469912747,"['Co', 'Li', 'Mn', 'O']"
mp-757313,Li4V(PO4)2,4,False,-0.7461797511748325,0.0433766707599276,0.985609647701084,True,-0.7991100787886897,0.7778552875790916,"['Li', 'O', 'P', 'V']"
mp-1035113,LiMg14GaO16,4,False,-1.049829503706501,0.2923295051011726,2.339734939597449,True,-0.0732671607168641,-0.3518900194144398,"['Ga', 'Li', 'Mg', 'O']"
mp-756969,Li2VFeO4,4,True,-0.2502773455794146,-0.0201912446207878,-0.0454729036763775,False,0.1839754889102915,-0.5782128532931671,"['Fe', 'Li', 'O', 'V']"
mp-1239060,LiMnO,3,True,1.7869701986307809,0.4607477481552445,0.0693626628547614,True,-2.3371387156674137,0.214634924806752,"['Li', 'Mn', 'O']"
mp-756924,Li3V2(PO4)3,4,False,-0.7679442972619966,-0.1074983240519675,0.164697850163631,True,-0.5783481600840933,1.4709850865823608,"['Li', 'O', 'P', 'V']"
mp-1236499,Ba2Li(NiO2)2,4,True,0.2746525071470222,0.415167940892136,-0.1419591550365608,False,1.034518091165292,-0.8190109116557783,"['Ba', 'Li', 'Ni', 'O']"
mp-1174526,Li7Mn2(CoO4)3,4,True,0.1665930080473298,0.2230791345701856,-0.8682128617659177,False,0.1842121316713209,-0.6101247487114305,"['Co', 'Li', 'Mn', 'O']"
mp-767440,Li2MnFe2(PO4)3,5,True,-0.506084213794761,-0.1258500166604165,-0.8682128617659177,False,-0.3216030105494257,0.1269781004440332,"['Fe', 'Li', 'Mn', 'O', 'P']"
mp-757541,LiSiBiO4,4,False,-0.5281703491486925,0.1138535409658348,1.3200953190830549,True,1.1281937538337916,2.021738127754736,"['Bi', 'Li', 'O', 'Si']"
mp-1079181,LiOsF6,3,False,-0.358346358891883,-1.244262904799024,-0.0529209651848823,False,0.9908862996319704,-0.9529410473031076,"['F', 'Li', 'Os']"
mp-567200,Li2InIr,3,False,1.9050393565362056,-3.7408469695878654,-0.8682128617659177,False,3.831309458271273,-1.075774429805051,"['In', 'Ir', 'Li']"