material_id,formula_pretty,n_elements,contains_transition_metal,formation_energy_per_atom,energy_per_atom,band_gap,is_semiconductor,density,volume,elements
mp-765804,Li6VF8,3,False,-1.2114271326322708,0.5258476399583697,1.5145574341051244,True,-0.6764560502523118,-0.8100201299278738,"['F', 'Li', 'V']"
mp-849616,Li2Mn3(BO3)3,4,True,-0.4998809888228063,-0.2294034470104831,-0.7925811826295497,False,-0.3779953087019015,-0.1689796826828912,"['B', 'Li', 'Mn', 'O']"
mp-780864,LiMn2P2H5O11,5,True,-0.0395219301782089,0.112586667934449,-0.307644668775768,False,-0.6471776441716154,1.2415451301180065,"['H', 'Li', 'Mn', 'O', 'P']"
mp-1213008,CsLi2C,3,False,3.6226817008108103,1.481943430341307,-0.8682128617659177,False,-0.197911144916215,-1.0177288046923922,"['C', 'Cs', 'Li']"
mp-1301965,LiFePO4,4,True,-0.4891328077423484,-0.0652819809348192,1.529656686072367,True,-0.8704497092685758,-0.0027586032645,"['Fe', 'Li', 'O', 'P']"
mp-27080,LiNi3P4O15,4,True,-0.1076094612354416,0.0579888550662892,-0.8682128617659177,False,-0.490621253072404,2.238741416637031,"['Li', 'Ni', 'O', 'P']"
mp-1174755,Li4MnCo2O7,4,True,0.1865801926854431,0.2263343216601452,-0.8481030956929531,False,0.2243452314854538,-0.5044786676148411,"['Co', 'Li', 'Mn', 'O']"
mp-29582,Li2CrCl4,3,False,0.3416206625923559,-0.2138574430363302,-0.8682128617659177,False,-0.9513627549995808,-0.382703667652167,"['Cl', 'Cr', 'Li']"
mp-752984,LiNiPO4,4,True,-0.3380629367872006,0.0860542302586905,1.142357487630085,True,-0.0956471328061562,-0.3842153609675749,"['Li', 'Ni', 'O', 'P']"
mp-1095903,LiAg2Au,3,False,3.388725583428715,-4.5081207142865365,-0.5383314465892044,False,-2.002452638781597,1.4189589066472907,"['Ag', 'Au', 'Li']"
mp-758891,Li3CuPO5,4,False,-0.3564989576614571,0.2846891910446219,-0.6983293497219173,False,-0.4686434893999106,-0.0096783453849258,"['Cu', 'Li', 'O', 'P']"
mp-1174656,Li7Mn2(CoO4)3,4,True,0.0978905730644146,0.204960348416822,-0.4593819945990469,False,0.2255666823830203,-0.6196219061009489,"['Co', 'Li', 'Mn', 'O']"
mp-1377836,Li2NiP2O7,4,True,1.9737427270394607,0.7278801937589898,-0.8682128617659177,False,-0.4098762101275869,-0.4846847246668644,"['Li', 'Ni', 'O', 'P']"
mp-38695,LiTbSe2,3,False,0.0668052690359691,0.5743242766637153,0.2376211432969068,True,1.3286152544265812,-0.6968237039178781,"['Li', 'Se', 'Tb']"
mp-754771,Li3Co2OF5,4,True,-0.5431166071057529,0.4852253772303986,0.025283680654424,True,-0.0087420844786606,-0.5974488374682538,"['Co', 'F', 'Li', 'O']"
mp-863401,Li6VFe5O12,4,True,0.0771399998551122,0.0810011231327683,-0.8682128617659177,False,0.3829777570877989,-0.6127440398357278,"['Fe', 'Li', 'O', 'V']"
mp-1211107,Li2H12C8N2O13,5,False,0.8484153749470433,0.1989301235634978,0.7574281269405087,True,-1.451787145774012,0.9347111860199568,"['C', 'H', 'Li', 'N', 'O']"
mp-1177908,Li2MnPCO7,5,True,-0.3857169901544808,-0.0683458103753754,0.479953980923642,True,-0.7062851092259987,0.3548324127453939,"['C', 'Li', 'Mn', 'O', 'P']"
mp-768198,LiCePCO7,5,False,-0.8381461310422798,-0.1890971051806152,-0.0516344818334131,False,-0.5007265204074954,-0.273237544210801,"['C', 'Ce', 'Li', 'O', 'P']"
mp-771252,LiMnH4(SO5)2,5,True,0.2552711309428332,0.2777177390596517,-0.1669440159150934,False,-0.7852024255410843,-0.1586812572220734,"['H', 'Li', 'Mn', 'O', 'S']"
mp-1094591,Li3Mg,2,False,2.147994943847021,1.2834407335229163,-0.8682128617659177,False,-1.8938533339282693,-1.0028434553242682,"['Li', 'Mg']"
mp-851256,Li4V3P8O29,4,False,-0.6590823366391519,-0.0970260411424037,-0.5382637369391279,False,-0.817730856238412,2.1469649695539603,"['Li', 'O', 'P', 'V']"
mp-1174687,Li4MnCo2O7,4,True,0.2728936089332778,0.2490976244681126,-0.8682128617659177,False,0.2408830979581643,-0.5088908018131235,"['Co', 'Li', 'Mn', 'O']"
mp-19279,Li2MnO2,3,True,-0.0529711618796436,0.1973138818107509,0.7746263780601484,True,-0.0578257398049266,-1.106204593565364,"['Li', 'Mn', 'O']"
mp-1176697,LiFePCO7,5,True,-0.1159428927484904,-0.0654465298626091,-0.8506760623958913,False,-0.8283229524168114,-0.4068612279798211,"['C', 'Fe', 'Li', 'O', 'P']"
mp-763223,Li4Mn3Fe2Ni3O16,5,True,0.3377148319757136,0.0882802115175368,-0.8682128617659177,False,0.4592465811467141,-0.4423465819177406,"['Fe', 'Li', 'Mn', 'Ni', 'O']"
mp-1174373,Li4Mn3O7,3,True,-0.1642877572120935,0.0497157500760853,-0.1471050884424374,False,0.0789095509241181,-0.4830588396276813,"['Li', 'Mn', 'O']"
mp-755796,Li2FeS2,3,True,1.130959794762167,0.6436677962449773,-0.8682128617659177,False,-0.728235650950218,-0.7558890153670492,"['Fe', 'Li', 'S']"
mp-1178151,Li2Fe3CoO8,4,True,0.4586364469740573,0.0857626746710338,-0.8682128617659177,False,0.2456116666068379,0.4777085990668189,"['Co', 'Fe', 'Li', 'O']"
mp-1648324,Li4Co5NiO12,4,True,0.5374180140321938,0.2500798664333442,-0.8357122297288031,False,0.4898231398781487,-0.0119820504100175,"['Co', 'Li', 'Ni', 'O']"
mp-758393,Li3Ti2(PO4)3,4,False,-0.9462081604252174,-0.1200300270832217,-0.8682128617659177,False,-0.6395732374024218,0.1396753244519719,"['Li', 'O', 'P', 'Ti']"
mp-1192527,Ba4Li2(CdP2)3,4,False,1.3309117729915658,0.9832047734596796,-0.5396179299406736,False,0.6260421252857787,0.9849109282416768,"['Ba', 'Cd', 'Li', 'P']"
mp-1222709,Li3(CuO2)2,3,False,0.4282490840316107,0.5647055899657213,-0.8682128617659177,False,0.2158669449822984,-0.9886680976629948,"['Cu', 'Li', 'O']"
mp-24342,LiBeH3,3,False,1.926135943458212,1.1279015696793675,0.9634685921257992,True,-1.833059098063147,-0.87794306246601,"['Be', 'H', 'Li']"
mp-762632,LiFeSiO4,4,True,-0.541298631047839,-0.079447643585888,1.183389535576942,True,-0.5912578374955071,-0.7200376428468808,"['Fe', 'Li', 'O', 'Si']"
mp-759327,LiCoSiO4,4,True,-0.3101433042702031,0.0369163874742238,-0.5214717437199513,False,0.2648188657022779,-0.8727916369212394,"['Co', 'Li', 'O', 'Si']"
mp-4604,Li7VN4,3,False,1.1166019426820069,0.2057112110707102,1.186910437380962,True,-0.8979528497693344,1.2397320640257137,"['Li', 'N', 'V']"
mp-759053,LiFeSiO4,4,True,-0.5565028561413335,-0.083457430184647,0.9047643255087616,True,-0.5218914115618197,-0.2380967127525714,"['Fe', 'Li', 'O', 'Si']"
mp-767321,Li7(SbS)2,3,False,1.0716400084215032,1.0327769410781569,-0.6252029276384087,False,-0.7301301638017194,0.0466688384970656,"['Li', 'S', 'Sb']"
mp-1174906,Li7Mn2(CoO4)3,4,True,0.0798702437701824,0.2002078750441307,-0.8661138626135214,False,0.2478206954077758,-0.6246146710841287,"['Co', 'Li', 'Mn', 'O']"
mp-753810,Li2SiNiO4,4,True,-0.5053775303416822,0.1427808367760444,1.4842912205205618,True,-0.4314868531479287,-0.7296491025794769,"['Li', 'Ni', 'O', 'Si']"
mp-1184974,Li2ScIn,3,False,1.810180188670376,-0.7946898371847415,-0.8195973330104012,False,0.1726482065390567,-1.0304123030664811,"['In', 'Li', 'Sc']"
mp-1643372,LiCo3(OF3)2,4,True,-0.1145823128964288,0.4280212508032189,-0.8682128617659177,False,0.3223953426912136,-0.4909875231634407,"['Co', 'F', 'Li', 'O']"
mp-1199885,Li12Mo5O17,3,False,-0.2146742058714375,0.1060655885781911,-0.0007845346253443,False,0.2865083219632063,0.6781923407567557,"['Li', 'Mo', 'O']"
mp-983425,Li2PmGe,3,False,1.7578859986685054,1.045494705349512,-0.8682128617659177,False,1.128429095036984,-1.0339620762117394,"['Ge', 'Li', 'Pm']"
mp-756415,LiNbFeO4,4,True,-0.5740494910173746,-0.2819030316557399,0.6499052026177213,True,0.4249420352460137,-0.2773199458378774,"['Fe', 'Li', 'Nb', 'O']"
mp-1020013,Li2S2O7,3,False,-0.1339966340360694,0.2708084092177517,3.002341575254124,True,-0.979207476829986,0.355567876202247,"['Li', 'O', 'S']"
mp-1235264,LiMn4(CoO6)2,4,True,0.4311917817451446,-0.0609158624280022,-0.8682128617659177,False,0.130840743615905,-0.5861305116602218,"['Co', 'Li', 'Mn', 'O']"
mp-1290983,Li4Y3VO8,4,False,-1.1467747191795838,-0.1388109546859232,0.626139115440581,True,0.2169315488583829,-0.123889834874949,"['Li', 'O', 'V', 'Y']"
mp-760175,LiFe2OF3,4,True,-0.4545616118348574,0.1945137551652394,1.15461293429408,True,-0.0279895683918821,-0.2470675414695697,"['F', 'Fe', 'Li', 'O']"
mp-7791,Li2GeF6,3,False,-1.1469724489761388,0.593943406034996,3.018930439523067,True,-0.0315048393572945,-0.7188915554070718,"['F', 'Ge', 'Li']"
mp-754950,LiMnBO3,4,True,-0.5323125873384331,-0.1778201484711353,1.035579369458148,True,-0.6523064642840789,-0.404078917174112,"['B', 'Li', 'Mn', 'O']"
mp-756046,LiFeBO3,4,True,-0.3416489429182074,-0.0940733194743633,0.9321190241399996,True,-0.3633784647373849,-0.1473721383213732,"['B', 'Fe', 'Li', 'O']"
mp-676324,Li11TiP5,3,False,1.2638775667223077,0.4349584775980443,-0.6207340907333061,False,-1.3042306001761814,-0.4950630736207144,"['Li', 'P', 'Ti']"
mp-766533,Li12Cr3FeP4(CO7)4,6,True,-0.4402880206087458,-0.0139033039651196,0.8380026105325219,True,-0.6944418029073551,0.379519215322834,"['C', 'Cr', 'Fe', 'Li', 'O', 'P']"
mp-770749,Li2Ti(BO3)2,4,False,-0.9904656698758616,-0.1668639078121691,1.0947576036257276,True,-0.7857494654164529,0.0974340959004983,"['B', 'Li', 'O', 'Ti']"
mp-753243,Li6Fe5NiO12,4,True,0.2086630070204774,0.1556283451658235,-0.8682128617659177,False,0.415867552128105,-0.6112742168740105,"['Fe', 'Li', 'Ni', 'O']"
mp-780877,Li2Mn3(BO3)3,4,True,-0.523933830711555,-0.2357468655322767,-0.8682128617659177,False,-0.4150286939145519,-0.1500716603012955,"['B', 'Li', 'Mn', 'O']"
mp-759369,Li6MnNi7O16,4,True,0.5729955357454811,0.3334889220875588,-0.6874958057095452,False,0.5827320478254041,0.3461045011258147,"['Li', 'Mn', 'Ni', 'O']"
mp-776779,Li2Mn(BO3)2,4,True,-0.5052581506023397,-0.0723080375120172,0.5414343431938512,True,-0.6411377528081538,-0.5977678403398399,"['B', 'Li', 'Mn', 'O']"
mp-1020592,Sr4Li2Si4N8O,5,False,0.5272791327820819,0.0905070067876416,1.015334184085028,True,0.2144734686210492,0.186519839488858,"['Li', 'N', 'O', 'Si', 'Sr']"
mp-758712,Li2Cr2Si2O9,4,False,-0.6504875804316599,-0.1513570127210643,-0.4910024011851563,False,-0.1852355161733656,0.5180449573252631,"['Cr', 'Li', 'O', 'Si']"
mp-759091,Li2FeP4O13,4,True,-0.5165167293173247,-0.0231529988025251,-0.839910228033597,False,-0.8751347288315872,0.3388708850641049,"['Fe', 'Li', 'O', 'P']"
mp-759605,Li2Fe(CO3)2,4,True,-0.0378988858649842,-0.0652840028961591,1.9286696539780264,True,-1.011166183027841,-0.4254161950042472,"['C', 'Fe', 'Li', 'O']"
mp-759980,LiV3(O2F)2,4,False,-0.7887696969191573,-0.2006709478285126,0.1151343863070312,True,0.1479828119826558,0.0260053178190165,"['F', 'Li', 'O', 'V']"
mp-778554,Li2MnF4,3,True,-1.1822729827236476,0.3716306839469829,1.8458607519334616,True,-0.5610006740735073,-0.761202517400752,"['F', 'Li', 'Mn']"
mp-771398,Li3Fe3CuO8,4,True,0.338271672719219,0.1807155095288974,-0.8682128617659177,False,0.3294034233428157,-0.8087895981455803,"['Cu', 'Fe', 'Li', 'O']"
mp-768794,LiBiB2O5,4,False,-0.475878665840876,-0.0019445383167935,1.453347910435225,True,0.1155555392564356,0.3143406765545312,"['B', 'Bi', 'Li', 'O']"
mp-756875,Li4NbCu3O8,4,False,0.1310441357038662,0.3108406586023624,-0.8682128617659177,False,0.6066602569748408,-0.7858320093022336,"['Cu', 'Li', 'Nb', 'O']"
mp-754121,Li2AlCoO4,4,True,-0.3998128749179797,0.1824615152104531,0.3467013895714728,True,-0.3932416527878378,-0.741460936425926,"['Al', 'Co', 'Li', 'O']"
mp-1174992,Li7Mn2(CoO4)3,4,True,0.1118873832791052,0.2086517053705059,-0.8682128617659177,False,0.2233284020605479,-0.6191152389731206,"['Co', 'Li', 'Mn', 'O']"
mp-767393,Li15Ti11Nb5O42,4,False,-1.1907641024309958,-0.2610189027196565,0.6707597748415364,True,0.0772514661584602,0.9537980528291724,"['Li', 'Nb', 'O', 'Ti']"
mp-755757,Li2Sn(BO3)2,4,False,-0.5471926321487005,0.05253892606724,0.8229710682153565,True,-0.4448988840326475,-0.4604262449779989,"['B', 'Li', 'O', 'Sn']"
mp-1197444,Li2Si3H30(C5N2)2,5,False,1.8402386368627388,0.5580120247298628,1.2219840361210157,True,-1.9078796201257164,5.261114766836486,"['C', 'H', 'Li', 'N', 'Si']"
mp-1178079,Li12MnCr3P4(CO7)4,6,True,-0.4638500457720997,-0.0239784420491798,0.90530600270938,True,-0.7052839507642933,0.3876294265178188,"['C', 'Cr', 'Li', 'Mn', 'O', 'P']"
mp-760655,Li3Bi(PO4)2,4,False,-0.623628915998849,0.130144647456176,1.5941839825960555,True,0.4196974691698402,-0.778380253260671,"['Bi', 'Li', 'O', 'P']"
mp-753997,Li4MnF7,3,True,-1.1311146423071188,0.5103714781291685,0.6225505039864832,True,-0.8848448258886166,-0.3861319207743073,"['F', 'Li', 'Mn']"
mp-753012,LiVTe(WO6)2,5,False,-0.0410073019262992,-0.1690469269643329,0.3464305509711627,True,1.5130930320848786,-0.6438205736761936,"['Li', 'O', 'Te', 'V', 'W']"
mp-1196670,Li3Eu2(BO3)3,4,False,-0.772612672307235,-0.2159776744468053,-0.8234567830648086,False,-0.2668975391932071,0.1959839366575144,"['B', 'Eu', 'Li', 'O']"
mp-774918,Li3La14(CuO7)4,4,False,-1.2796233709995328,-0.1592774433983729,-0.5885720069465781,False,2.044307840221444,2.5208130657062933,"['Cu', 'La', 'Li', 'O']"
mp-560088,Cs2Li3F5,3,False,-1.0866553594876784,-0.8661126880421715,2.9923205470426804,True,-0.0311595916997075,-0.7440786417467937,"['Cs', 'F', 'Li']"
mp-760823,Li11V4F24,3,False,-1.3144688894134042,0.4238238113658628,-0.8682128617659177,False,-0.6642139947276461,1.3217684558965974,"['F', 'Li', 'V']"
mp-774362,Li6Mn5Fe(BO3)6,5,True,-0.5572409267162524,-0.1788172267369164,1.0860907684158303,True,-0.3777966425267892,-0.1468188953473972,"['B', 'Fe', 'Li', 'Mn', 'O']"
mp-1298606,Li2VOF4,4,False,-1.1591318917564284,0.3080272842503104,0.5192255779684896,True,-0.6657501741128035,-0.1464944540167096,"['F', 'Li', 'O', 'V']"
mp-1232983,Sr4LiMn2Cu3(SO)4,6,True,0.2504863457954693,0.3854605182006511,-0.5849156858424021,False,0.6097576855093455,-0.3636403332135219,"['Cu', 'Li', 'Mn', 'O', 'S', 'Sr']"
mp-780882,LiMnPH2O5,5,True,-0.1840236776751386,0.09703365407284,1.379002714650326,True,-0.8168492791719791,-0.5751531914923154,"['H', 'Li', 'Mn', 'O', 'P']"
mp-33461,Li3Mn3O8,3,True,0.012457553006829,0.0333449721304388,-0.8682128617659177,False,-0.0534459067141044,-0.8284212589509359,"['Li', 'Mn', 'O']"
mp-1176986,Li6Ni3Sb(PO4)6,5,True,-0.4090764043979429,0.0949802448729248,-0.8682128617659177,False,-0.3756561220698707,0.1291844357223425,"['Li', 'Ni', 'O', 'P', 'Sb']"
mp-26937,LiMn(PO3)3,4,True,-0.6762127577147702,-0.128640310483731,1.827443727112429,True,-0.6580978573600124,-0.202440567276873,"['Li', 'Mn', 'O', 'P']"
mp-756691,Li6CoNiP2(CO7)2,6,True,-0.3529164697741589,0.0738757682447287,1.0606996496368335,True,-0.5753073259379001,0.3187129610342168,"['C', 'Co', 'Li', 'Ni', 'O', 'P']"
mp-697850,Li2Cr(PO3)4,4,False,-0.7036294888568875,-0.090042095109084,1.042959721316575,True,-0.6343558284498254,1.3749536959726865,"['Cr', 'Li', 'O', 'P']"
mp-977229,Li3Cr,2,False,2.6118653528785623,0.614831396092609,-0.8682128617659177,False,-1.4020794002209562,-0.8161039450979368,"['Cr', 'Li']"
mp-1185394,LiGd2Ga,3,False,1.8112706792776776,-0.3837543806401165,-0.8682128617659177,False,2.011476143681296,-0.9605565569709666,"['Ga', 'Gd', 'Li']"
mp-556310,LiAlS3(Cl2O3)2,5,False,0.2306476873397843,0.5327781114487147,0.4746049185675343,True,-1.3169223815730609,2.722070025015592,"['Al', 'Cl', 'Li', 'O', 'S']"
mp-561000,Cs4KLiFe2F12,5,True,-1.073993959505413,0.5797802079712845,-0.8682128617659177,False,0.3584306970236392,-0.2118813783849304,"['Cs', 'F', 'Fe', 'K', 'Li']"
mp-570946,Na2Li5Sn4,3,False,1.906197278567356,1.2958901417347262,-0.8682128617659177,False,-0.1348860216650513,0.2631086566389884,"['Li', 'Na', 'Sn']"
mp-1112185,K2LiFeF6,4,True,-1.1017748342021978,0.5482100033074737,1.804490155736218,True,-0.4262908615751845,-0.8454262143890434,"['F', 'Fe', 'K', 'Li']"
mp-867813,LiLa2Os,3,False,2.110527204868249,0.4264095680801595,-0.8682128617659177,False,3.025887549144264,-0.9628509084015576,"['La', 'Li', 'Os']"
mp-763793,Li2Mn3F8,3,True,-1.0958364254957813,0.2093554767373226,1.408253283483729,True,-0.3220482963932626,-0.268030212206622,"['F', 'Li', 'Mn']"
mp-849990,LiMn2(BO3)2,4,True,-0.495806048484924,-0.2611304603397997,-0.6536409806708846,False,-0.4447639798278042,0.2191359683745282,"['B', 'Li', 'Mn', 'O']"
mp-867845,Li3MnP2O9,4,True,-0.4720945740222207,0.0553652069761626,-0.8682128617659177,False,-0.7113864798971127,-0.2327409187328569,"['Li', 'Mn', 'O', 'P']"
mp-1204876,LiMnP3(H5O7)2,5,True,0.0638704182967299,0.2495298605700642,1.8800541252225096,True,-1.0937375544686747,0.5246738231552767,"['H', 'Li', 'Mn', 'O', 'P']"
mp-760981,Li3V3P8O29,4,False,-0.6009461393866,-0.1028123020234105,-0.2544925934650701,False,-0.836590916589929,2.158509823074027,"['Li', 'O', 'P', 'V']"
mp-850191,NaLiFe2(SiO3)4,5,True,-0.840416095495393,-0.1520129946996525,0.9856773573511616,True,-0.2637103585373601,-0.6009992650294856,"['Fe', 'Li', 'Na', 'O', 'Si']"
mp-1233011,Sr2Li(H4O3)2,4,False,0.3692981235452866,0.5755250951955706,-0.8682128617659177,False,-0.972918975828463,-0.6403848071321582,"['H', 'Li', 'O', 'Sr']"
mp-1211137,LiNd(WO4)2,4,False,-0.7350455639006573,-0.4002635524600858,1.626278356732706,True,1.910099914195441,-0.2989919290975919,"['Li', 'Nd', 'O', 'W']"
mp-758918,LiCuPO4,4,False,-0.170100766282288,0.200024603143268,-0.8682128617659177,False,-0.257352189648339,4.419317612361053,"['Cu', 'Li', 'O', 'P']"
mp-1212005,KLiWO4,4,False,-0.3678549364731568,-0.0417535030318292,2.3876733718521934,True,0.0930718779956046,3.109483249549126,"['K', 'Li', 'O', 'W']"
mp-756753,Li3La7(FeO8)2,4,True,-1.199519829833949,-0.1908835904951631,-0.1921320057438572,False,1.5790040308188626,-0.1702544133071444,"['Fe', 'La', 'Li', 'O']"
mp-1200773,Li2B2H9N,4,False,1.7412901387466635,0.8359120699012779,2.281843188781339,True,-1.96946590923259,1.5479118372929723,"['B', 'H', 'Li', 'N']"
mp-758545,K8Li3(FeO4)4,4,True,0.486184690604187,0.4705826985650098,-0.8247432664162769,False,-0.7418616945652504,0.237645039607926,"['Fe', 'K', 'Li', 'O']"
mp-1212004,LiNiBP2H6O11,6,True,-0.0523276879491854,0.2061283642768086,-0.8682128617659177,False,-0.7855709711859797,2.340443718144979,"['B', 'H', 'Li', 'Ni', 'O', 'P']"
mp-1100557,Li9Mn7O16,3,True,-0.185393463485958,0.0347546316418942,-0.2737898437371077,False,0.0922789090650628,-0.3711679994299067,"['Li', 'Mn', 'O']"
mp-760462,Li5Ti(SiO4)2,4,False,-0.9553962292543434,0.055939238447083,-0.4934399485879406,False,-0.8412070359016501,-0.7251011824944186,"['Li', 'O', 'Si', 'Ti']"
mp-1175791,Li9Mn2Co5O16,4,True,0.1536627148023915,0.2161410450129536,-0.3937713436741223,False,0.289983265960177,-0.4095097969736876,"['Co', 'Li', 'Mn', 'O']"
mp-1176236,Li9Mn2Co5O16,4,True,0.1902444133879155,0.2257886793939293,-0.8682128617659177,False,0.2953424126368175,-0.4110932781722777,"['Co', 'Li', 'Mn', 'O']"
mp-850190,Li4Ti(TeO4)3,4,False,-0.1231985728907366,0.2827600372619649,0.2429702056530145,True,0.5978659098863417,-0.5665621215597187,"['Li', 'O', 'Te', 'Ti']"
mp-864772,LiSc2Au,3,False,1.6510424771348378,-3.52184082470854,-0.8682128617659177,False,1.7474422328803398,-1.0167039935881537,"['Au', 'Li', 'Sc']"
mp-766788,Li3FePCO7,5,True,-0.3910074538172197,0.0188963960534012,1.1779050539206783,True,-0.637752875041687,0.3503098254008728,"['C', 'Fe', 'Li', 'O', 'P']"
mp-1235202,LiBi2As2(PbO5)2,5,False,0.4021349087538957,0.3488026116621386,-0.8682128617659177,False,1.612206011993767,-0.3436488654500546,"['As', 'Bi', 'Li', 'O', 'Pb']"
mp-762248,LiSb3(P3O10)2,4,False,-0.420464479455094,0.0182518564581096,1.0726842577005198,True,-0.4780502540095962,1.5356244135820891,"['Li', 'O', 'P', 'Sb']"
mp-1176593,LiSn(PO3)4,4,False,-0.572583552214199,-0.0139215155686761,-0.8218994611130295,False,-0.560540456764227,0.2157244797850006,"['Li', 'O', 'P', 'Sn']"
mp-799539,Li7Ni(O2F)2,4,True,1.0922387159867757,0.9405708647322132,-0.7560179715877957,False,-0.7400300181310498,-0.4791468980367191,"['F', 'Li', 'Ni', 'O']"
mp-1174448,Li4MnCo2O7,4,True,0.1406821188904183,0.2142296941582209,-0.8675357652651452,False,0.2355197588734843,-0.5074657433359383,"['Co', 'Li', 'Mn', 'O']"
mp-3151,Li3TaO4,3,False,-0.9637626204016494,-0.0713326151327517,2.2362745942793008,True,1.4724633519524817,-0.381599445359353,"['Li', 'O', 'Ta']"
mp-778012,Li3Fe2SbO6,4,True,0.0932153117617738,0.1976235659617399,-0.8682128617659177,False,0.5921242511021251,-0.8758132777257849,"['Fe', 'Li', 'O', 'Sb']"
mp-1096683,LiPdPb2,3,False,3.577178867588573,1.4293506636744524,-0.8682128617659177,False,-1.954029304871161,1.8120197388756565,"['Li', 'Pb', 'Pd']"