material_id,formula_pretty,n_elements,contains_transition_metal,formation_energy_per_atom,energy_per_atom,band_gap,is_semiconductor,density,volume,elements
mp-1180707,LiH2BrO5,4,False,1.2431207657363923,0.735798743821801,0.8853993655866476,True,-0.9833141375099042,0.1819819512853853,"['Br', 'H', 'Li', 'O']"
mp-867832,Li6TiFe5O12,4,True,-0.0922041838095738,0.0507075570048441,-0.631838473345987,False,0.2644559659284902,-0.5895749894028439,"['Fe', 'Li', 'O', 'Ti']"
mp-555706,LiAlSiH2O5,5,False,-0.0241370357171261,0.2960713612946792,0.2976118932654136,True,-1.2519675112033335,0.2319428301567377,"['Al', 'H', 'Li', 'O', 'Si']"
mp-760110,Li3MnPCO7,5,True,-0.4770742861445204,-0.0192465231319751,0.1296242514235781,True,-0.6847596362305255,0.3848590831575671,"['C', 'Li', 'Mn', 'O', 'P']"
mp-761166,LiFeF3,3,True,-0.9046836721722166,0.3646988233059456,1.560464576857549,True,-0.1596740359583487,-0.9110354792218598,"['F', 'Fe', 'Li']"
mp-1540429,LiBiO2,3,False,0.1451125162371765,0.4385670052680667,0.8392213842339132,True,2.297580690790383,-0.5762839110284191,"['Bi', 'Li', 'O']"
mp-1185430,LiZnCu2,3,False,2.0541805210582385,1.2559676805565978,-0.8682128617659177,False,2.0329168521602563,-1.0972817435012994,"['Cu', 'Li', 'Zn']"
mp-675069,LiNbO3,3,False,-1.010725151378448,-0.2861335392290706,1.1760768933685912,True,0.442329742608632,1.0116629753505626,"['Li', 'Nb', 'O']"
mp-770191,Li2V2(SO4)3,4,False,-0.193508515396067,0.0556704070895085,1.5650011234127292,True,-0.6861951998713542,1.6054467872469818,"['Li', 'O', 'S', 'V']"
mp-558483,K4LiIO6,4,False,0.3576528820574724,0.7228320816275331,0.6972342480217693,True,-0.3188435352365847,3.287578900738372,"['I', 'K', 'Li', 'O']"
mp-763149,LiMnF3,3,True,-1.1435397692481488,0.2615495932305606,1.4597803271925711,True,-0.3380910089987578,-0.5355172929933132,"['F', 'Li', 'Mn']"
mp-1174382,Li5Mn2CoO8,4,True,-0.0608728531012982,0.1701459242809882,-0.8682128617659177,False,0.1129072618980493,-0.4269375809925697,"['Co', 'Li', 'Mn', 'O']"
mp-753996,LiMn2OF3,4,True,-0.7710994591012714,0.0536678879746345,0.4125151694466299,True,-0.0975120593759989,-0.2281482088075378,"['F', 'Li', 'Mn', 'O']"
mp-775913,SrLi4NiO4,4,True,-0.0283792269805847,0.5186521449228562,0.9238584468305664,True,-0.1391383233049239,1.3399781527574148,"['Li', 'Ni', 'O', 'Sr']"
mp-754571,Li4Co7(OF7)2,4,True,-0.4253231141483423,0.4136530371007606,0.505412809352715,True,0.021304906079772,-0.3021642094682367,"['Co', 'F', 'Li', 'O']"
mp-768404,Li4TiCrO6,4,False,-0.6902897051518055,0.0299573783704073,0.0017207224275166,True,-0.1960592640641748,0.0024628602405646,"['Cr', 'Li', 'O', 'Ti']"
mp-761202,Li3Fe4(BO3)4,4,True,-0.3597420768636313,-0.1418387311706837,0.3803530856599011,True,-0.3238313424306926,0.1695211534558331,"['B', 'Fe', 'Li', 'O']"
mp-774573,Li2Mn2Ni(PO4)3,5,True,-0.48094891535467,-0.0902369681673828,-0.6536409806708846,False,-0.2699632720667981,0.1010583225965879,"['Li', 'Mn', 'Ni', 'O', 'P']"
mp-760111,Li4V3P8O29,4,False,-0.6603021066922502,-0.097347729198349,-0.2147470288696827,False,-0.8157000459781975,2.1429053986514943,"['Li', 'O', 'P', 'V']"
mp-1174937,Li7Mn2(CoO4)3,4,True,0.0758840091829965,0.1991565916062094,-0.3534841018781157,False,0.2637087160469804,-0.6281301710299727,"['Co', 'Li', 'Mn', 'O']"
mp-780113,LiMnP2HO7,5,True,-0.4819187158219045,-0.0374537349824677,1.9523680315050893,True,-0.4822377433254997,0.2612406908592076,"['H', 'Li', 'Mn', 'O', 'P']"
mp-865231,LiScTl2,3,False,1.82939513125263,-6.693640761080786,-0.8682128617659177,False,3.3341083340250663,-0.9852336379513644,"['Li', 'Sc', 'Tl']"
mp-753382,LiMnPO4,4,True,-0.6434823202749798,-0.1346712543462274,1.487744412674505,True,-0.5723230928126292,-0.7185392662357059,"['Li', 'Mn', 'O', 'P']"
mp-753193,Li2Cr(SiO3)2,4,False,-0.6702389702932414,-0.0626126126734437,0.166390591415564,True,-0.6879400225171811,-0.469956332171645,"['Cr', 'Li', 'O', 'Si']"
mp-976283,LiYO3,3,False,-0.2806502898126676,0.1148623903145852,-0.8682128617659177,False,0.6760353707802234,-1.093268896271261,"['Li', 'O', 'Y']"
mp-753448,Li2Ni3OF6,4,True,-0.2968031700271866,0.5516079656247844,1.6207938750764426,True,0.1663336689123648,-0.470853440119694,"['F', 'Li', 'Ni', 'O']"
mp-1176052,Li9Mn2Co5O16,4,True,0.1907844142920501,0.2259310929911627,-0.8682128617659177,False,0.2761972536441689,-0.4054084086299435,"['Co', 'Li', 'Mn', 'O']"
mp-780325,LiMnSiO4,4,True,-0.7041895339845478,-0.1510895245827813,-0.8460040965405567,False,-0.1069398452954526,-0.4156908642398156,"['Li', 'Mn', 'O', 'Si']"
mp-775372,Li5SbS,3,False,1.1501187451650845,1.103773344484422,0.2980858608159556,True,-1.0175342793304396,2.005760149498619,"['Li', 'S', 'Sb']"
mp-758153,Li4Cr3Co3(SbO8)2,5,True,-0.0416813045476835,0.0208549717331777,-0.8682128617659177,False,0.8506107175101005,-0.4169083516013491,"['Co', 'Cr', 'Li', 'O', 'Sb']"
mp-1175107,Li7Mn2(CoO4)3,4,True,0.1199240829964851,0.2107712116673962,-0.8682128617659177,False,0.1774011155430814,-0.6085325415314408,"['Co', 'Li', 'Mn', 'O']"
mp-777288,Li5V6O5F19,4,False,-1.0543175259976427,0.2232074387104329,-0.8682128617659177,False,-0.5601803083090698,0.0479569156905628,"['F', 'Li', 'O', 'V']"
mp-772925,Li4Ti5O12,3,False,-1.325741446158981,-0.2821876057914193,1.180816568874004,True,-0.312813081580479,0.1030157324178009,"['Li', 'O', 'Ti']"
mp-554028,Na5LiMn2O8,4,True,0.1729849432539447,0.377991872383344,0.3359355552091779,True,-0.6370401636018235,3.693882404924473,"['Li', 'Mn', 'Na', 'O']"
mp-757777,LiSiBi3O7,4,False,-0.1689657521597754,0.1972320324557875,1.1468940341852647,True,2.643107528524197,-0.274319772697363,"['Bi', 'Li', 'O', 'Si']"
mp-2912485,LiCr(PO3)3,4,False,-0.3580685265543081,-0.5905965471871695,0.6918174760155834,True,-0.8478147923425616,1.047095678125462,"['Cr', 'Li', 'O', 'P']"
mp-1177697,Li3Cu4SbO8,4,False,0.5235415226665021,0.4829373833408296,-0.8682128617659177,False,1.086813691557868,-0.7699874920094412,"['Cu', 'Li', 'O', 'Sb']"
mp-759289,LiBi(PO3)4,4,False,-0.5709240644672576,-0.0115569986085991,2.2792025124283235,True,-0.093905502957469,0.1746346242909207,"['Bi', 'Li', 'O', 'P']"
mp-775839,Li2VF4,3,False,-1.16191403257076,0.3802375185702831,1.077559352506087,True,-0.5701088118460902,-0.3062240969778718,"['F', 'Li', 'V']"
mp-770534,Li2Mn3O7,3,True,-0.0414155127105088,-0.0665196919568368,0.0906912026291172,True,0.246063627080678,-0.5611973665549658,"['Li', 'Mn', 'O']"
mp-754577,Li3NbV4O8,4,False,-0.4032068139317648,-0.2313502458886967,-0.8682128617659177,False,0.5551219634397734,-0.7717469221967966,"['Li', 'Nb', 'O', 'V']"
mp-1638622,Li5Fe3(SbO5)2,4,True,0.0483196138803876,0.2067755685411112,-0.1974133584498876,False,0.6681054226237197,-0.0148760683620484,"['Fe', 'Li', 'O', 'Sb']"
mp-1174233,Li4Co3O7,3,True,0.3817006607329644,0.3198354956094823,-0.8617804450085721,False,0.3346156691333635,-0.52391397689199,"['Co', 'Li', 'O']"
mp-768560,Li3MnV(PO4)3,5,True,-0.7131425780930926,-0.094178712170823,-0.3620155177878583,False,-0.6283974184922899,0.1660998343088839,"['Li', 'Mn', 'O', 'P', 'V']"
mp-1235834,LiEuTcO3,4,False,0.2372738973147652,-0.207331510292669,-0.8682128617659177,False,1.532500126190059,-0.9961291436441988,"['Eu', 'Li', 'O', 'Tc']"
mp-1348117,LiFe2F9,3,True,1.538286878693742,1.072221328361597,-0.8682128617659177,False,-0.7163749384708311,-0.2016212745262005,"['F', 'Fe', 'Li']"
mp-6031,Li16Nb2N8O,4,False,1.0611058977582106,0.5032673515437395,1.422336890699812,True,-0.7374795793105277,-0.4687008716691738,"['Li', 'N', 'Nb', 'O']"
mp-1333053,Li3V4(OF3)3,4,False,0.2048558870993498,0.4607326798743993,-0.8682128617659177,False,-0.25887134384617,-0.6057663914963763,"['F', 'Li', 'O', 'V']"
mp-1147726,Li4Zn(PS4)2,4,False,1.0059382950741378,0.7820862466818246,0.7558030953386529,True,-1.064860317872318,1.5049444790148607,"['Li', 'P', 'S', 'Zn']"
mp-1174833,Li4MnCo2O7,4,True,0.3233572330434651,0.2624063174424385,-0.8682128617659177,False,0.1958291256644989,-0.4967441442903967,"['Co', 'Li', 'Mn', 'O']"
mp-757580,LiP4WO12,4,False,-0.5957724647178384,-0.1642816851181197,1.995905336504808,True,-0.1781607289798853,0.1565004009009458,"['Li', 'O', 'P', 'W']"
mp-605006,LiH8C2S2NO5,6,False,1.1713271190442114,0.4903504832254682,3.0621969059224763,True,-1.3934796992059204,3.2974122286729144,"['C', 'H', 'Li', 'N', 'O', 'S']"
mp-1222277,LiSbSe2,3,False,1.425819262539932,-2.1992294271248145,-0.64213034015774,False,0.9118077816861262,-0.9693616564650334,"['Li', 'Sb', 'Se']"
mp-1174052,Li3MnCoO5,4,True,0.0362386085934793,0.1915233746384053,-0.8644211213615884,False,0.1739622716071402,-0.7247494003574866,"['Co', 'Li', 'Mn', 'O']"
mp-865579,Li2ErIn,3,False,1.7787558709855102,-2.437012254076567,-0.8682128617659177,False,1.7385876823661348,-1.0146264428938967,"['Er', 'In', 'Li']"
mp-774186,LiVP2H5O9,5,False,-0.0841622540633529,0.173316152610428,0.8531695721498421,True,-0.958069142929812,0.9862539866101409,"['H', 'Li', 'O', 'P', 'V']"
mp-861538,Li2VO2F,4,False,-0.6989823744037061,0.1594147218299073,0.3602433195869364,True,-0.2497446453456143,-0.5803347231445684,"['F', 'Li', 'O', 'V']"
mp-15960,Li5AlO4,3,False,-0.5745545662219884,0.4273609233445534,2.2884110248388394,True,-0.9654866487650158,0.8514966735716835,"['Al', 'Li', 'O']"
mp-778272,Li8Mn7Fe(BO3)8,5,True,-0.5612551619788294,-0.1812702032105771,1.182577019776014,True,-0.4193511358534557,0.2454283186174772,"['B', 'Fe', 'Li', 'Mn', 'O']"
mp-25399,Li2PWO4F,5,False,-0.350854927138351,0.0310406684529231,0.6351444989008649,True,0.5207696860852536,-0.5781039237001768,"['F', 'Li', 'O', 'P', 'W']"
mp-760344,NaLi2CoPCO7,6,True,-0.3271776792926522,0.0782212691533658,1.1277322032133832,True,-0.5561203582585984,0.4096552497496662,"['C', 'Co', 'Li', 'Na', 'O', 'P']"
mp-1177747,Li32Mn13Cr3O48,4,True,-0.2367258948070653,0.1263722385447918,0.0624562785468746,True,-0.0326658060650706,1.1717022814003335,"['Cr', 'Li', 'Mn', 'O']"
mp-849416,Li4Fe2Cu3O10,4,True,0.5725151424828404,0.3710533699042493,-0.8682128617659177,False,0.3753775021239595,-0.6930853213036045,"['Cu', 'Fe', 'Li', 'O']"
mp-1094573,LiMg,2,False,2.1476212357440154,1.154038105673682,-0.8682128617659177,False,-1.6872734830488672,-0.8722399790845885,"['Li', 'Mg']"
mp-1191302,Li6Cu(B2O5)2,4,False,-0.5782813956215993,0.1185777507677311,-0.1317349978748853,False,-0.8697960469019732,-0.6345647327858481,"['B', 'Cu', 'Li', 'O']"
mp-850188,LiVOF4,4,False,-0.9332507145710592,0.3145754526629993,0.5960083211561722,True,-0.7536882029745254,-0.6903482338735288,"['F', 'Li', 'O', 'V']"
mp-1246647,Li2ReN2,3,False,1.731798965970733,-2.3823564159612274,-0.8682128617659177,False,1.9131545670426584,-1.072675529159721,"['Li', 'N', 'Re']"
mp-774523,Li3Sb2(PO4)3,4,False,-0.505016970057338,0.1056084621735563,1.1441179385320952,True,-0.0892806179404116,0.2181971140081592,"['Li', 'O', 'P', 'Sb']"
mp-763305,Li8FeO6,3,True,0.0055291577948659,0.5067230840068344,-0.8682128617659177,False,-0.9487791093935476,-0.3854388700102786,"['Fe', 'Li', 'O']"
mp-763993,Li2TiVO4,4,False,-0.8426437326972034,-0.155577826169656,-0.8682128617659177,False,0.0657187779658229,-0.577723531715347,"['Li', 'O', 'Ti', 'V']"
mp-673697,Li9Mn20O40,3,True,0.0091970534943711,-0.1338505988771325,-0.8682128617659177,False,0.4159105226183469,0.7373562967193351,"['Li', 'Mn', 'O']"
mp-779296,Li7Mn8(BO3)8,4,True,-0.5613188204042971,-0.2072213930762829,-0.567852854022917,False,-0.3820722312484644,0.2075903048782298,"['B', 'Li', 'Mn', 'O']"
mp-1185322,LiCuAu2,3,False,1.8382639350257264,1.1127914753435264,-0.8682128617659177,False,6.368558912330187,-1.0703244718425475,"['Au', 'Cu', 'Li']"
mp-705357,LiMnP2O7,4,True,-0.6244821145324236,-0.1172347812798222,-0.036061262315629,False,-0.4872044791043735,0.2585268663434917,"['Li', 'Mn', 'O', 'P']"
mp-760055,LiMnVP2(HO5)2,6,True,-0.3917592689619377,-0.0538012225957945,-0.2631594286749674,False,-0.4375594885382448,0.3264858948038635,"['H', 'Li', 'Mn', 'O', 'P', 'V']"
mp-776162,Li8Mn7Ni(PO4)12,5,True,-0.5043387066518717,-0.0742869891708563,-0.8682128617659177,False,-0.4884097204022778,1.3630487612685285,"['Li', 'Mn', 'Ni', 'O', 'P']"
mp-755487,Li2BiO3,3,False,0.2146261724914786,0.5048009602102486,-0.8133680452032869,False,1.183154409550355,-0.7674679965402069,"['Bi', 'Li', 'O']"
mp-1306620,LiNbFeO4,4,True,-0.5288538200060175,-0.2699836477457487,0.4230101652086148,True,0.3362626317394971,-0.2473745820870447,"['Fe', 'Li', 'Nb', 'O']"
mp-849340,Li4V3Cr3O12,4,False,-0.4765268748983828,-0.2120369092733431,-0.0693744101536715,False,0.086307035251762,-0.5848099101256982,"['Cr', 'Li', 'O', 'V']"
mp-1235575,BaLiZrO3,4,False,-0.637493731939184,0.0543514945326617,-0.8682128617659177,False,1.059997307490958,-0.9833358266239316,"['Ba', 'Li', 'O', 'Zr']"
mp-849322,LiVP3HO10,5,False,-0.6031097682683606,-0.0731083775295295,0.6528844272211225,True,-0.837943566619857,-0.0410283895397791,"['H', 'Li', 'O', 'P', 'V']"
mp-776768,Li4V5Fe3O16,4,True,-0.2964106866200608,-0.1728722736982823,-0.4218708484562111,False,0.1749214681449092,-0.39431144465806,"['Fe', 'Li', 'O', 'V']"
mp-752564,Li3V4O5F7,4,False,-0.9540969271656454,0.0624165626512276,-0.0489938054803976,False,-0.0880496844254127,-0.6583328778269648,"['F', 'Li', 'O', 'V']"
mp-759126,Li2Mn2(PO4)3,4,True,-0.5358299409188515,-0.0955032278620415,-0.6468023060130751,False,-0.502231127244381,1.3749601665950508,"['Li', 'Mn', 'O', 'P']"
mp-850985,LiFeP2HO7,5,True,-0.3834673700967369,0.0052423865929485,1.9363208444367643,True,-0.5119064428174727,0.2893415862704503,"['Fe', 'H', 'Li', 'O', 'P']"
mp-774798,Li2Mn3SnO8,4,True,-0.1197322479910739,-0.0450528275293222,-0.4246469441093806,False,0.4618205978602759,0.599277975855358,"['Li', 'Mn', 'O', 'Sn']"
mp-771319,Li5Fe2Ni5O12,4,True,0.4293078302182638,0.2645756274357838,-0.8682128617659177,False,0.7461663946259459,-0.6154572926169094,"['Fe', 'Li', 'Ni', 'O']"
mp-773122,Na2LiFePCO7,6,True,-0.3340373907222241,0.0592398407411643,1.673133434586212,True,-0.6009965633080154,0.5355706164402144,"['C', 'Fe', 'Li', 'Na', 'O', 'P']"
mp-757914,Li3Ti2(PO4)3,4,False,-0.9460678013985944,-0.1199930104157816,-0.8613064774580309,False,-0.4059563613657821,1.2114045119831156,"['Li', 'O', 'P', 'Ti']"
mp-1185372,LiLu2Pt,3,False,1.2731771332923587,-7.557748813502044,-0.8682128617659177,False,5.17310543855762,-1.0076527656068353,"['Li', 'Lu', 'Pt']"
mp-1197353,Ba4LiGa5Se12,4,False,0.5546429423890288,0.8056682879853305,0.3068204056759301,True,0.7245216316497961,2.4373328019308698,"['Ba', 'Ga', 'Li', 'Se']"
mp-849448,Li2Fe2CuO6,4,True,0.4685135122156175,0.2235821638616616,-0.8682128617659177,False,0.3226450259395413,-0.2691386470061964,"['Cu', 'Fe', 'Li', 'O']"
mp-764645,Li3MnF7,3,True,-0.9726496553588384,0.5361444195844488,0.0869671718748652,True,-0.8155976626639687,-0.4472676607288787,"['F', 'Li', 'Mn']"
mp-1177861,Li2TiCo3O8,4,True,0.062934050255345,0.0487135136538714,-0.8674680556150671,False,0.2746994931069178,0.4514750127084161,"['Co', 'Li', 'O', 'Ti']"
mp-760784,Li3Cu4F15,3,False,-0.0342681500245388,0.2446570459252113,-0.8682128617659177,False,-0.3427931799690321,2.0789359081189125,"['Cu', 'F', 'Li']"
mp-759059,Li3Mn3(PO4)4,4,True,-0.5484435793643218,-0.1017313117429113,-0.2581489145692456,False,-0.5318344559958686,0.5969368350289913,"['Li', 'Mn', 'O', 'P']"
mp-775950,Li4CaNiO4,4,True,-0.0920318064032988,0.4927785451519144,1.0191259244893585,True,-0.4872029211323497,1.180331845337641,"['Ca', 'Li', 'Ni', 'O']"
mp-1177739,Li3(VS2)4,3,False,0.747392110279701,0.281850944545612,-0.8682128617659177,False,-0.398739978531411,-0.5067936598119455,"['Li', 'S', 'V']"
mp-1101532,LiCr2(PO4)3,4,False,-0.5422534947114834,-0.1651983257662386,-0.8000969537881325,False,-0.5133414700078719,0.0344486131976451,"['Cr', 'Li', 'O', 'P']"
mp-1094982,LiMg,2,False,2.1513828277694005,1.155030144478727,-0.8682128617659177,False,-1.6845126616641173,-1.116587856293881,"['Li', 'Mg']"
mp-766385,Li5V12O32,3,False,-0.4247100936205266,-0.212802059478834,-0.8682128617659177,False,-0.2582352305574526,0.4122722976160763,"['Li', 'O', 'V']"
mp-684446,LiSnP2O7,4,False,-0.5244616734974527,0.045049732894375,-0.8682128617659177,False,-0.2945747375433398,0.4978706590910809,"['Li', 'O', 'P', 'Sn']"
mp-1263657,Li10Cr(SiO5)2,4,False,-0.5341653130094016,0.2742200661327292,-0.3972922454781425,False,-0.8940153990444247,0.1028881637265401,"['Cr', 'Li', 'O', 'Si']"
mp-772989,Li4Ti2Mn3Sn3O16,5,True,-0.4657506936739118,-0.0566675034093795,-0.8682128617659177,False,0.6069612600916058,-0.3111324091212402,"['Li', 'Mn', 'O', 'Sn', 'Ti']"
mp-643288,CsLi2(H2N)3,4,False,2.0304726810489093,0.8625999479506875,-0.4185530756024216,False,-1.2786090670288464,-0.2221263591409987,"['Cs', 'H', 'Li', 'N']"
mp-723352,Li2S,2,False,0.6082007029172946,0.9296631155552242,0.4322863872692074,True,-1.4055443255554896,0.2310985698492313,"['Li', 'S']"
mp-755828,Li2V4CrCuO12,5,False,-0.2721735833942087,-0.1764395471022547,-0.4448921294824999,False,-0.2150477411043137,-0.5037214326284434,"['Cr', 'Cu', 'Li', 'O', 'V']"
mp-1100522,Li9Mn7O16,3,True,-0.1795708268047845,0.0362902265433143,-0.4990598495443583,False,0.1192094498228657,-0.3800513407400268,"['Li', 'Mn', 'O']"
mp-1245553,Li3TaN2,3,False,1.3735486192868032,-1.6779457362691323,-0.8682128617659177,False,1.6703508810728858,0.1728731973296204,"['Li', 'N', 'Ta']"
mp-8184,Li2ZnGeO4,4,False,-0.2768760556695717,0.396088642303457,1.2343749020851658,True,0.1302770144748295,-0.7132440531833928,"['Ge', 'Li', 'O', 'Zn']"
mp-752668,Li2Mn3O6,3,True,-0.0686015074531415,-0.0881178508902753,-0.3374369148097897,False,0.1287146348479849,-0.5699981061579702,"['Li', 'Mn', 'O']"
mp-759846,Li3MnFeCo(PO4)3,6,True,-0.5538803578605714,-0.0734514581617404,0.6857236075086245,True,-0.1918460750157848,1.3947614184095134,"['Co', 'Fe', 'Li', 'Mn', 'O', 'P']"
mp-777943,Li8Mn3Fe5(BO3)8,5,True,-0.4632129912672645,-0.1386819927240852,1.349819855467,True,-0.3802120730028871,0.2236200903530394,"['B', 'Fe', 'Li', 'Mn', 'O']"
mp-754559,Li4Fe3OF11,4,True,-0.8517945401366287,0.4124236143465782,0.9148530633702824,True,-0.2459795567591291,-0.6423859632685882,"['F', 'Fe', 'Li', 'O']"
mp-758582,Li5Cr5O12,3,False,-0.2097592993479426,-0.0620675257078033,-0.8682128617659177,False,-0.0304598973251687,0.0216476015007815,"['Cr', 'Li', 'O']"
mp-758018,Li3P2WO8,4,False,-0.6278712307963079,-0.0589089015570426,1.9100495002067623,True,0.424834823324669,-0.8066746344053706,"['Li', 'O', 'P', 'W']"
mp-755607,Li5Co2Ni3O10,4,True,0.4131762355593013,0.3328957734565495,-0.7143088271401646,False,0.6175480571140816,-0.2354113774211665,"['Co', 'Li', 'Ni', 'O']"
mp-642996,Li4H6Os,3,False,1.6318805910205163,-0.2270976069307698,0.95385382181482,True,0.035315510691016,-0.673195662803928,"['H', 'Li', 'Os']"
mp-1207274,LiGaIr,3,False,1.6423238114213412,-4.429628432276629,-0.8682128617659177,False,5.242640642882156,-1.015595822976028,"['Ga', 'Ir', 'Li']"
mp-760010,Li2Mn2F7,3,True,-1.0231200707627015,0.3315187245581015,0.0069343654834704,True,-0.7538641853796174,0.6388794642410953,"['F', 'Li', 'Mn']"
mp-1197533,LiMnH2OF4,5,True,-0.4408909271961251,0.4403410394127858,0.4528701208927131,True,-0.6604708752700286,-0.1560576489061975,"['F', 'H', 'Li', 'Mn', 'O']"
mp-753908,LiMn2O3F,4,True,-0.2980493688286847,-0.0731008688854176,-0.0834580173697552,False,-0.0978853044347809,-0.2599126088167958,"['F', 'Li', 'Mn', 'O']"
mp-758828,LiCuPO4,4,False,-0.1866680885006382,0.195655329063204,-0.7707786753046519,False,-0.0176611457895434,-0.3859512664444,"['Cu', 'Li', 'O', 'P']"
mp-1100514,Li9Mn7O16,3,True,-0.1830570749054799,0.0353708037625967,-0.3551091334799715,False,0.1131377861399877,-0.37806446575866,"['Li', 'Mn', 'O']"
mp-770640,Li4Mn3NbV2(PO4)6,6,True,-0.6600880751574706,-0.1922234133328698,-0.5459149273978645,False,-0.3525229166788553,0.1857440729545585,"['Li', 'Mn', 'Nb', 'O', 'P', 'V']"
mp-761027,Li6(CoO2)5,3,True,0.3707855221756172,0.3018591317189208,-0.8682128617659177,False,-0.363334136778159,-0.4961407733513899,"['Co', 'Li', 'O']"
mp-1177045,Li6MnV3(PO4)6,5,True,-0.7446091796167869,-0.1019107698994173,-0.5755040444816549,False,-0.6025120893415292,1.5187694957541802,"['Li', 'Mn', 'O', 'P', 'V']"