material_id,formula_pretty,n_elements,contains_transition_metal,formation_energy_per_atom,energy_per_atom,band_gap,is_semiconductor,density,volume,elements
mp-1200227,LiSi4H27(C3O)3,5,False,1.7276691210792667,0.5886146628734096,1.3499552747671544,True,-1.8672836309107297,4.811673013522682,"['C', 'H', 'Li', 'O', 'Si']"
mp-1174292,Li7Co5O12,3,True,0.2998450656501228,0.3072709084898872,-0.4685227973594853,False,0.3404835796733203,-0.6355700613657402,"['Co', 'Li', 'O']"
mp-1176768,LiCu2PO4,4,False,0.1275013356472898,0.2915725668775478,-0.4124592070954633,False,0.3447055221596179,-0.2084233075270869,"['Cu', 'Li', 'O', 'P']"
mp-766125,Li3V4(PO4)6,4,False,-0.7605868581579236,-0.1777083441406165,-0.4239021379585301,False,-0.5431473076274125,0.0581851270871005,"['Li', 'O', 'P', 'V']"
mp-865965,Li2CaSi,3,False,1.8401861471485257,1.208113565960869,-0.8682128617659177,False,-1.2071712201825897,-1.0359834445233975,"['Ca', 'Li', 'Si']"
mp-780303,Li4Fe3SbO8,4,True,0.0267949010993422,0.1538662707236128,0.0126896857400429,True,0.5480353954315137,-0.7711237093033222,"['Fe', 'Li', 'O', 'Sb']"
mp-849611,Li2Mn3(BO3)3,4,True,-0.4952517424550522,-0.2281825830773578,-0.8682128617659177,False,-0.4126189995516386,0.935504670159104,"['B', 'Li', 'Mn', 'O']"
mp-753968,Li2WS4,3,False,0.9359543290329116,0.4040995784029219,0.3725664759010098,True,-0.1865875632928936,0.5629491384874646,"['Li', 'S', 'W']"
mp-1175354,Li7Mn5O12,3,True,-0.1911523415009203,0.0551573863073358,-0.0226547516003199,False,0.0656864196427683,0.0458529084458089,"['Li', 'Mn', 'O']"
mp-570756,Cs3Li2Cl5,3,False,-0.1396866572018201,-1.7146890476004162,2.577666649969159,True,-0.3725712992420953,-0.3524538881208781,"['Cl', 'Cs', 'Li']"
mp-760001,Li11Ti12(NiO8)4,4,True,-0.9694545621271758,-0.1784720351901865,-0.8335455209263295,False,0.0843230253245409,0.4905660614404436,"['Li', 'Ni', 'O', 'Ti']"
mp-753078,LiMnP2O7,4,True,-0.5810450801320742,-0.1057791998636478,0.0986809413382418,True,-0.5899545448260054,-0.4497457987450742,"['Li', 'Mn', 'O', 'P']"
mp-25829,LiMn2P3O11,4,True,-0.5576998828027392,-0.1598815441162732,-0.1827880740331867,False,-0.3927605663488128,-0.068725930308246,"['Li', 'Mn', 'O', 'P']"
mp-1305321,Li2MnO2F,4,True,-0.5653614869491898,0.190877149839846,0.288335671204821,True,-0.1356545956044427,-0.5903476619251731,"['F', 'Li', 'Mn', 'O']"
mp-1174305,Li7Co5O12,3,True,0.3188680358431439,0.3122878067849018,-0.8682128617659177,False,0.3315909438004231,-0.6336837262000101,"['Co', 'Li', 'O']"
mp-25390,Li2CoPO4F,5,True,-0.6006454425554871,0.1529445398792273,1.0879866386179953,True,-0.318273546764323,-0.6911261485431147,"['Co', 'F', 'Li', 'O', 'P']"
mp-1058798,LiBe,2,False,2.5743530586220005,1.398259177153885,-0.8682128617659177,False,-1.7121276726299215,-1.173933468430802,"['Be', 'Li']"
mp-766506,Li3CuS2,3,False,0.8604120594770631,0.8902608275392656,0.5215954157211957,True,-0.6609446671666797,0.8239822637295197,"['Cu', 'Li', 'S']"
mp-787625,LiFe2F7,3,True,-0.7573272745614106,0.4034178679974208,1.569334541017678,True,-0.6894440332797007,0.5362723964055127,"['F', 'Fe', 'Li']"
mp-1175184,Li7Mn4CoO12,4,True,-0.0972700785420174,0.1044415174417729,-0.4292512003146385,False,0.1268511589947361,-0.6061828718208219,"['Co', 'Li', 'Mn', 'O']"
mp-765286,LiSn(PO3)4,4,False,-0.5696276682816744,-0.0131419649038289,-0.8682128617659177,False,-0.3688794654666656,0.0855279173740984,"['Li', 'O', 'P', 'Sn']"
mp-1177126,Li5V3P8O29,4,False,-0.7077191529206133,-0.089673120187934,-0.8204098488113284,False,-0.7972151722067856,2.132411822035081,"['Li', 'O', 'P', 'V']"
mp-1178063,Li2Cr2(SO4)3,4,False,-0.1105615947127448,0.0601632368222786,0.3538786124796689,True,-0.6416113355084715,4.3422555446386095,"['Cr', 'Li', 'O', 'S']"
mp-1571229,Li2V(CO3)2,4,False,-0.1363697870467358,-0.1074460544046086,1.032126177304204,True,-0.9389377359172636,-0.4828391348852833,"['C', 'Li', 'O', 'V']"
mp-757072,Li3Mn(FeO3)2,4,True,-0.0220084494418838,0.0455427061647907,-0.416521786100102,False,0.2438435029454397,-0.907842486845136,"['Fe', 'Li', 'Mn', 'O']"
mp-757098,Li2Fe2S3,3,True,1.2614906474833594,0.4964374545857627,-0.8682128617659177,False,-0.5828657001758587,-0.4994643350919793,"['Fe', 'Li', 'S']"
mp-758792,Li3CrSi2O7,4,False,-0.8933418489732629,-0.0553201226174154,0.9729479431366248,True,-0.571664366176737,1.1560320796497583,"['Cr', 'Li', 'O', 'Si']"
mp-1111348,NaLi2FeF6,4,True,-0.7880532845464895,0.6022834961521792,1.9555503850587237,True,-0.8498471704816241,-0.8384953879556579,"['F', 'Fe', 'Li', 'Na']"
mp-781020,Li2V2Si4O11,4,False,0.0760828028652746,0.0605204791965812,-0.8543323835000668,False,-0.4447365347385963,0.0178075820561819,"['Li', 'O', 'Si', 'V']"
mp-13276,SrLiP,3,False,0.9231507894991008,-0.7840859926931031,0.0411954484225948,True,-0.4151236220029174,-0.8535009139279937,"['Li', 'P', 'Sr']"
mp-1661592,Li4Mn3Co3(SbO8)2,5,True,0.1038492534749676,0.0745003553770228,-0.6780841643487979,False,0.7242263643856386,0.4860474221608317,"['Co', 'Li', 'Mn', 'O', 'Sb']"
mp-1232991,LiV4O10,3,False,-0.3723232664411752,-0.2563012134233922,-0.8682128617659177,False,-0.8104800883025711,-0.5380354820277955,"['Li', 'O', 'V']"
mp-753447,LiMn(SiO3)2,4,True,-0.918232329024683,-0.2008420066641141,-0.0011230828757309,False,-0.3453280389831955,-0.6034496262840551,"['Li', 'Mn', 'O', 'Si']"
mp-1174453,Li4MnCo2O7,4,True,0.2828079984354465,0.2517123309668795,-0.8682128617659177,False,0.2056167785143891,-0.4994171982747691,"['Co', 'Li', 'Mn', 'O']"
mp-759895,LiFe2(BO3)2,4,True,-0.3170884504100315,-0.177492015984333,0.1095821950006908,True,-0.3473900879123855,0.1642607618451161,"['B', 'Fe', 'Li', 'O']"
mp-1177403,Li4FeP6(H4O11)2,5,True,-0.2501017167889302,0.166317433552338,1.8830333498259115,True,-0.8984854362363943,0.0157028898351799,"['Fe', 'H', 'Li', 'O', 'P']"
mp-1246145,LiReN2,3,False,1.7767477799354017,-3.2918367610212265,-0.8682128617659177,False,2.2892816519835373,-0.942424588227734,"['Li', 'N', 'Re']"
mp-775628,Li5La3(SbO6)2,4,False,-0.8296144585284878,0.1067995478556299,1.292063523951044,True,1.0832783854241377,1.9300462376368737,"['La', 'Li', 'O', 'Sb']"
mp-753477,Li3BiS3,3,False,0.946343338475987,0.8751183007246336,-0.1016719132405548,False,0.0262738530333507,0.4118187104931512,"['Bi', 'Li', 'S']"
mp-756540,Li3Ti4MnO12,4,True,-0.9303314385007756,-0.2421525280265469,-0.8682128617659177,False,-0.0060289494546532,-0.6495883666397173,"['Li', 'Mn', 'O', 'Ti']"
mp-754680,Li4Mn3Fe(BO3)4,5,True,-0.5364382468146447,-0.1705423514504111,1.269719339425527,True,-0.4160914629738331,-0.4968206614422788,"['B', 'Fe', 'Li', 'Mn', 'O']"
mp-996961,LiAuO2,3,False,0.8481398728287503,0.6686690925154706,-0.1210368731626683,False,2.248833040259912,-0.9200267899181624,"['Au', 'Li', 'O']"
mp-1026801,LiMg14B,3,False,2.3755666421160027,0.9302583198348656,-0.8682128617659177,False,-1.341613458833508,-0.2543702639528085,"['B', 'Li', 'Mg']"
mp-1235290,LiCd4(TcO3)4,4,False,0.5198522912088807,0.2034651819213292,-0.8682128617659177,False,2.215921858923283,-0.5316467188901222,"['Cd', 'Li', 'O', 'Tc']"
mp-863027,LiIn3,2,False,1.9394360841661804,-3.0362280224085163,-0.8682128617659177,False,1.791057966468674,-0.9759967215203702,"['In', 'Li']"
mp-768652,Li3Fe2P2(CO7)2,5,True,-0.2015159306677199,-0.0436774311637963,-0.8255557822172048,False,-0.740681139240026,0.3672140697357836,"['C', 'Fe', 'Li', 'O', 'P']"
mp-1191127,LiCr(WO4)2,4,False,-0.3303040468300948,-0.4116335356649037,0.7684647999031123,True,2.0326545831755016,-0.4546496594872139,"['Cr', 'Li', 'O', 'W']"
mp-770886,Li3FeO3,3,True,0.005925989995275,0.3365915110137132,0.5205797709700359,True,-0.6200753758510104,-0.3912875991552582,"['Fe', 'Li', 'O']"
mp-7941,Li6TeO6,3,False,-0.1739671257579966,0.5044842727221288,1.0263031473975548,True,-0.1257072593296259,-0.8811319440295482,"['Li', 'O', 'Te']"
mp-763324,Li2Mn2P4H3O16,5,True,-0.3160331151274029,0.0244787401537222,-0.6712454896909877,False,-0.5545535604051021,-0.4065417542656932,"['H', 'Li', 'Mn', 'O', 'P']"
mp-761269,Li2AgF4,3,False,-0.413556782334281,-0.1716533456225945,-0.5751654962312684,False,0.1192027080468737,-0.7554244102922391,"['Ag', 'F', 'Li']"
mp-772675,Li6V3P8O29,4,False,-0.7559873413471796,-0.083100365615973,-0.0894164665765589,False,-0.7879634115568965,2.140168751963653,"['Li', 'O', 'P', 'V']"
mp-1213345,LiEu6B3O14,4,False,-1.2077457323522016,-0.6288152102244775,-0.8669940880645259,False,1.5571428816178003,2.470387997028648,"['B', 'Eu', 'Li', 'O']"
mp-766818,Li3FePCO7,5,True,-0.3933097091855365,0.0182892258315696,1.52200549561363,True,-0.6432726291647467,0.3550089999700938,"['C', 'Fe', 'Li', 'O', 'P']"
mp-1095674,Cs2LiBr3,3,False,0.0135502261299914,1.1247226996241937,2.0755318849957383,True,0.0757775116772734,0.0338750412170154,"['Br', 'Cs', 'Li']"
mp-1177082,Li5MnF8,3,True,-1.1598394991412373,0.5278661259782763,0.4749434668179209,True,-0.6890361782872034,-0.812250863486269,"['F', 'Li', 'Mn']"
mp-1190355,LiAlSi2O7,4,False,-0.8804476922542173,-0.0423898059168659,-0.8682128617659177,False,-1.0440183653057913,-0.3531311187241103,"['Al', 'Li', 'O', 'Si']"
mp-757066,Li3Co2(SiO4)2,4,True,-0.4337700415096748,0.0620575134731327,-0.8682128617659177,False,-0.4824450297297573,-0.7270914181251054,"['Co', 'Li', 'O', 'Si']"
mp-1236003,LiBi3PbWClO8,6,False,0.3667927682403875,0.2489303908969492,-0.8682128617659177,False,2.711707658403298,-0.5079233675346371,"['Bi', 'Cl', 'Li', 'O', 'Pb', 'W']"
mp-756842,Li3Cr2NiO6,4,True,-0.146762005335283,0.0372032699758082,-0.8682128617659177,False,0.3381597493282781,-0.9232259656588984,"['Cr', 'Li', 'Ni', 'O']"
mp-760071,Li5V3P8O29,4,False,-0.7073746468699901,-0.0895822641438747,-0.2336380212412549,False,-0.7901543745301841,2.1185668886031657,"['Li', 'O', 'P', 'V']"
mp-861527,Li2CrFe(PO4)2,5,True,-0.590262478841309,-0.1164707675350888,0.68078080305298,True,-0.2594637688899469,-0.3492578922022134,"['Cr', 'Fe', 'Li', 'O', 'P']"
mp-755096,Li2TiNiO4,4,True,-0.5855727525164678,0.0320416956879146,0.321716528692941,True,0.2676916122778375,-0.8119780925223542,"['Li', 'Ni', 'O', 'Ti']"
mp-8430,KLiS,3,False,0.6517767206469223,1.016357075632736,1.2017388507478963,True,-1.1657831232165623,-0.8650995029641605,"['K', 'Li', 'S']"
mp-1174533,Li7Mn2(CoO4)3,4,True,0.0988959891561306,0.2052255052364523,-0.4194333010534274,False,0.2067191212438392,-0.6153293957563993,"['Co', 'Li', 'Mn', 'O']"
mp-773844,Li2V3CuO8,4,False,-0.2859473937795195,-0.0858897545166969,-0.4545068997934796,False,0.1473615499110635,0.4923922464743056,"['Cu', 'Li', 'O', 'V']"
mp-1185321,LiAl2Au,3,False,1.7269567244728847,-2.824849302885036,-0.8682128617659177,False,2.31700381050189,-1.0667344714072486,"['Al', 'Au', 'Li']"
mp-754078,LiFe2(PO4)2,4,True,-0.4349099481040197,-0.1218410196975391,0.2263813413840714,True,-0.6576206204055924,-0.7034847110797503,"['Fe', 'Li', 'O', 'P']"
mp-1235165,LiTe4H4(O3F4)2,5,False,0.0994905646471109,0.6433152920089477,-0.2939673194601489,False,0.0046972727038121,-0.256312342222206,"['F', 'H', 'Li', 'O', 'Te']"
mp-776423,Li6Ni2C4SO16,5,True,-0.047325287113239,0.0932024761830699,1.624856454081082,True,-0.5870159456591322,0.4146463836018388,"['C', 'Li', 'Ni', 'O', 'S']"
mp-764620,LiFe4(BO3)4,4,True,-0.2790239769351155,-0.2188224727995341,0.2825126412981714,True,-0.394719005742403,0.174590014880236,"['B', 'Fe', 'Li', 'O']"
mp-1111095,NaLi2RhF6,4,False,-0.4293866542293985,0.7289560944310726,0.4295102916160377,True,-0.5290075670208564,-0.8270067645035276,"['F', 'Li', 'Na', 'Rh']"
mp-1638688,Li7Co5O12,3,True,0.2740004722937266,0.3004549541447227,-0.8682128617659177,False,0.409563701849271,-0.6498320940043008,"['Co', 'Li', 'O']"
mp-504358,LiCr6P7O24,4,False,-0.6124316550626633,-0.2757364026266956,0.7431413907741936,True,-0.3361870613578804,1.477569583759692,"['Cr', 'Li', 'O', 'P']"
mp-1211289,Li(BH)3,3,False,1.8868649105850748,0.7044893872800831,-0.8682128617659177,False,-1.77263574820876,-0.868781465242827,"['B', 'H', 'Li']"
mp-1177120,Li5Mn2(PO4)3,4,True,-0.6812360866144358,-0.0057953065243497,1.6187625855741234,True,-0.6905110795694609,0.2771381549954962,"['Li', 'Mn', 'O', 'P']"
mp-32352,LiNi(PO3)4,4,True,-0.4199130326490032,-0.0021982420034064,-0.234721375642492,False,-0.7702498996077488,0.1696115229586403,"['Li', 'Ni', 'O', 'P']"
mp-1177922,Li2Mn3VO8,4,True,-0.2370466933599969,-0.1811566882317343,-0.172699336171665,False,0.1180467916049472,0.5086989450642718,"['Li', 'Mn', 'O', 'V']"
mp-1236252,LiSm4V4O12,4,False,-1.195224216222336,-0.3860113302152728,-0.2341119887917968,False,1.9266692439115944,-0.5119293366159189,"['Li', 'O', 'Sm', 'V']"
mp-26221,Li6Fe3P8O29,4,True,-0.5182873900743803,-0.0087957876135449,-0.8682128617659177,False,-0.7980185921597884,2.2151817793469726,"['Fe', 'Li', 'O', 'P']"
mp-780532,Li2FeO2F,4,True,-0.3188347768082862,0.2893566581356263,0.6911403795148103,True,-0.1370809664855572,-0.5850516462757647,"['F', 'Fe', 'Li', 'O']"
mp-25813,Li3Fe3(PO4)4,4,True,-0.4866753441210156,-0.0622742999288102,0.6535615237218966,True,-0.4023756806872974,0.4924574247750896,"['Fe', 'Li', 'O', 'P']"
mp-776847,Li4Nb3V2Fe3O16,5,True,-0.4980519894631928,-0.257678948659067,-0.5805145585873761,False,0.3810461250860474,-0.3147506509965436,"['Fe', 'Li', 'Nb', 'O', 'V']"
mp-1100593,Li9Mn2Co5O16,4,True,0.1862408689130321,0.2247328308462914,-0.8682128617659177,False,0.2597005977845932,-0.4004469169980415,"['Co', 'Li', 'Mn', 'O']"
mp-766205,SrLiLa15(CoO8)4,5,True,-1.2975468880164012,-0.2515002518616073,-0.2869932255021847,False,1.940859704369587,0.8711581866750825,"['Co', 'La', 'Li', 'O', 'Sr']"
mp-758993,Li2Cr2P2O7F2,5,False,-0.6274567346867899,-0.0275236996212116,0.6348059506504776,True,-0.6669426670033107,1.0592903250815546,"['Cr', 'F', 'Li', 'O', 'P']"
mp-1180647,Li2PtO6,3,False,1.3346270443298816,0.6148339698226684,-0.8682128617659177,False,1.006256857701412,-0.9598452187161112,"['Li', 'O', 'Pt']"
mp-1246462,LiCoN,3,True,1.954024310425008,0.3731049184869006,-0.8682128617659177,False,0.0513228784026934,-1.13806325603069,"['Co', 'Li', 'N']"
mp-645317,Li4CO4,3,False,-0.0686551365683449,0.3389028626065792,2.747956419913624,True,-1.017728364496167,-0.7917060469961003,"['C', 'Li', 'O']"
mp-773182,Li4Cr3Sn5O16,4,False,-0.2534324452477055,0.0645970489199433,-0.8682128617659177,False,0.9738774058933476,0.6653175370292269,"['Cr', 'Li', 'O', 'Sn']"
mp-755122,Li3Fe3OF7,4,True,-0.5725959471474851,0.3622437597442198,0.4999960373465301,True,-0.2215501331292083,-0.7650555952122805,"['F', 'Fe', 'Li', 'O']"
mp-1177185,Li5Fe3O8,3,True,0.1423019531231891,0.2245881656130527,-0.8682128617659177,False,-0.0013727641350559,-0.3932302065999276,"['Fe', 'Li', 'O']"
mp-1177869,Li2V3CoO8,4,True,-0.3904011770572633,-0.1763206700369725,0.2423608188023188,True,0.1303511571906037,0.4811188748247988,"['Co', 'Li', 'O', 'V']"
mp-1211138,Li5Ni9P7,3,True,1.4206995008038448,-0.6120046067108507,-0.8682128617659177,False,0.9506336779630524,-0.5151098635110473,"['Li', 'Ni', 'P']"
mp-774237,Li5Cr2Ni5O12,4,True,0.2478005889961312,0.1881026534822764,-0.8682128617659177,False,0.7197883886152302,-0.618018450204957,"['Cr', 'Li', 'Ni', 'O']"
mp-1096532,LiY2In,3,False,4.414412264626273,-2.0549157938040925,-0.8400456473337524,False,-2.288200959474594,3.112224409781414,"['In', 'Li', 'Y']"
mp-1176671,LiMn2F7,3,True,-0.903085155548457,0.3248212854227194,0.4565941516469666,True,-0.4440316949827751,0.3141301178776753,"['F', 'Li', 'Mn']"
mp-1178076,Li2MnV3O8,4,True,-0.4805781823159206,-0.2421452680259707,-0.2574718180684723,False,0.0478498350751848,0.5165417710022643,"['Li', 'Mn', 'O', 'V']"
mp-776813,LiMnF4,3,True,-1.036259133099456,0.359896106645923,0.114051031905794,True,-0.2963982762398371,-0.4385782552966742,"['F', 'Li', 'Mn']"
mp-554837,Ba3LiIr2O9,4,False,-0.2343288406142123,0.1253634578064486,-0.8682128617659177,False,2.490122857990112,-0.0222956662670953,"['Ba', 'Ir', 'Li', 'O']"
mp-772578,Li2Mn3SnO8,4,True,-0.1408098948532997,-0.0506116025015303,-0.3862555725155389,False,0.5997138087500271,-0.3601855496329753,"['Li', 'Mn', 'O', 'Sn']"
mp-758506,LiFeSiO4,4,True,-0.608575293736128,-0.0971904130330584,1.187587533881736,True,-0.5889498493006576,-0.2031715523529597,"['Fe', 'Li', 'O', 'Si']"
mp-1100682,Li9Mn2Co5O16,4,True,0.1756967444528279,0.2219520453280427,-0.243185081902158,False,0.2729283927374732,-0.4044299489801209,"['Co', 'Li', 'Mn', 'O']"
mp-1176865,Li7V3P8O29,4,False,-0.7744032558477443,-0.0694760981417107,-0.8650982178623616,False,-0.7617567725185436,2.114987886487689,"['Li', 'O', 'P', 'V']"
mp-765741,Li4Mn2V3Sb3O16,5,True,-0.2750316295966615,-0.0339024689383929,-0.8682128617659177,False,0.5494338810694785,-0.2818413842314952,"['Li', 'Mn', 'O', 'Sb', 'V']"
mp-1198025,LiZn2(BH4)5,4,False,1.9173153542451504,0.9488006126609828,3.004643703356752,True,-1.707601630722252,2.1555644887226784,"['B', 'H', 'Li', 'Zn']"
mp-1018782,Li3YBi2,3,False,1.2863996825582211,-5.108655555240089,-0.8682128617659177,False,1.7827281716004035,-0.8437109032506329,"['Bi', 'Li', 'Y']"
mp-1289276,Li3Ni2SnO6,4,True,0.2077834001331989,0.3608033628730753,-0.6351562461997751,False,0.8553330017054717,-0.565122604480311,"['Li', 'Ni', 'O', 'Sn']"
mp-767710,Li2VP2O7,4,False,-0.6868098430465206,-0.0536649194197888,-0.8682128617659177,False,-0.5880739243475284,0.3567826020189531,"['Li', 'O', 'P', 'V']"
mp-756601,Li4TiNi3O8,4,True,-0.019800770593431,0.2196121880422583,-0.8682128617659177,False,0.4142305523877721,-0.8214599800128131,"['Li', 'Ni', 'O', 'Ti']"
mp-976598,LiHf2Ir,3,False,1.582862795167839,-0.2679066645304409,-0.8682128617659177,False,6.4400931704504725,-1.038787339981479,"['Hf', 'Ir', 'Li']"
mp-752968,LiNiPO4,4,True,-0.3508401533102725,0.0826845148494137,1.3953207403189605,True,-0.4139056251684674,-0.2545041527873125,"['Li', 'Ni', 'O', 'P']"
mp-632672,LiHF2,3,False,-0.2227608335997222,0.8176141808534906,4.815876842925118,False,-0.7707888008873894,-1.1533564593170742,"['F', 'H', 'Li']"
mp-1110681,Rb2LiPrCl6,4,False,-0.502439604162756,0.8330104969419436,2.398168367614178,True,-0.5783342264061478,-0.3550348898850944,"['Cl', 'Li', 'Pr', 'Rb']"
mp-1031148,LiMg6BO8,4,False,-0.7059891308560979,0.3015993782851312,2.0693703068387017,True,-0.3018786258324807,-0.8143604943416741,"['B', 'Li', 'Mg', 'O']"
mp-850189,LiVSnO4,4,False,-0.3928465453972333,-0.007059730326942,0.1148635477067218,True,0.6484493926460629,-0.7492717501512697,"['Li', 'O', 'Sn', 'V']"
mp-766919,Li8MnCr3O12,4,True,-0.1803746311565433,0.1278769377747424,-0.2988424142657161,False,-0.0600376303366138,-0.6376238025361742,"['Cr', 'Li', 'Mn', 'O']"
mp-760122,Li2CuF4,3,False,-0.5856154423745084,0.2185676942998422,-0.8682128617659177,False,-0.7463616661918777,0.4371451039633514,"['Cu', 'F', 'Li']"
mp-772535,LiNb13O33,3,False,-1.138028129704281,-0.5918281052465479,0.3212425611423996,True,0.2824451670402912,0.7645754129720986,"['Li', 'Nb', 'O']"
mp-1188477,LiH2N,3,False,1.5670513713783238,0.7161807453612171,1.457478199089942,True,-1.6341215396357374,-0.9013737571815564,"['H', 'Li', 'N']"
mp-753631,LiAlVO4,4,False,-0.9187938733331722,-0.1348244552812973,0.3439252939183025,True,-0.1467575240441599,-0.42953416384899,"['Al', 'Li', 'O', 'V']"
mp-569834,LiCu2Sn,3,False,1.96364266550877,1.032626260211541,-0.8682128617659177,False,2.1866733499100857,-0.8928107589293681,"['Cu', 'Li', 'Sn']"
mp-1176285,Li9Mn2Co5O16,4,True,0.1425954936360019,0.2132223040152633,-0.0051179522302935,False,0.2790909836078764,-0.4062726668608103,"['Co', 'Li', 'Mn', 'O']"
mp-1235344,LiCu6OF11,4,False,0.2328144581058131,0.7983620266306308,-0.8682128617659177,False,0.5103007064462046,-0.5866364550730089,"['Cu', 'F', 'Li', 'O']"
mp-753919,Li4Co3CuO8,4,True,0.4048284684365172,0.3268196342928469,-0.8682128617659177,False,0.5408151213106992,-0.8215056325947134,"['Co', 'Cu', 'Li', 'O']"
mp-759422,Li4FeOF5,4,True,-0.9140019964314818,0.4899634191782834,0.2112820894168286,True,-0.8482251426793712,-0.1105127850422974,"['F', 'Fe', 'Li', 'O']"
mp-1177236,Li4V3Ni(PO4)4,5,True,-0.6514504751216126,-0.0993000565051092,0.353269225628973,True,-0.22880093077499,-0.3670691945645612,"['Li', 'Ni', 'O', 'P', 'V']"