material_id,formula_pretty,n_elements,contains_transition_metal,formation_energy_per_atom,energy_per_atom,band_gap,is_semiconductor,density,volume,elements
mp-1174420,Li5Mn2CoO8,4,True,0.0378190305060053,0.1961737810024867,-0.8682128617659177,False,0.0468318814780663,-0.8220578313487602,"['Co', 'Li', 'Mn', 'O']"
mp-1177487,Li47(CoO4)8,3,True,0.0644085996808329,0.5381517770670369,-0.3073061205253814,False,-0.7368166759515417,1.1325203887374016,"['Co', 'Li', 'O']"
mp-755242,Li3(FeO3)2,3,True,0.3665265220246579,0.2544585280975274,-0.8682128617659177,False,-0.0400657214593311,-0.6443372751689914,"['Fe', 'Li', 'O']"
mp-606711,Cs3LiCl4,3,False,-0.1218074297361008,-2.204423295656033,2.4314138058021437,True,-0.4054255188989702,-0.4032714299378247,"['Cl', 'Cs', 'Li']"
mp-5419,LiGa2Ir,3,False,1.548952387322274,-3.683898986699156,-0.8682128617659177,False,4.36009969948258,-1.080013789204557,"['Ga', 'Ir', 'Li']"
mp-1022134,LiMg6Cu,3,False,2.1984572150850346,0.7313065984168736,-0.8682128617659177,False,-1.012521631151588,-0.3107604418822935,"['Cu', 'Li', 'Mg']"
mp-775679,Li2Mn3CrO8,4,True,-0.186395109554581,-0.1795937826698475,-0.3764376732543272,False,0.2052016219043748,0.4575945544653121,"['Cr', 'Li', 'Mn', 'O']"
mp-1174421,Li4MnCo2O7,4,True,0.1250345226410149,0.2101029779751972,-0.4642570894046141,False,0.2443918259744923,-0.5098200795558673,"['Co', 'Li', 'Mn', 'O']"
mp-776488,LiMnOF2,4,True,-0.7709988856183978,0.1837313559508822,-0.2228044772288834,False,-0.2575419079048328,-0.5777458046372486,"['F', 'Li', 'Mn', 'O']"
mp-755848,Li2CrFeO4,4,True,-0.2084743761462536,-0.029808488640464,0.4804279484741839,True,0.2999602696222475,-0.6018480187847156,"['Cr', 'Fe', 'Li', 'O']"
mp-765045,Li5V3P8O29,4,False,-0.704369309800188,-0.0887896712801709,-0.3505048772747129,False,-0.8015611355818587,2.140990387877435,"['Li', 'O', 'P', 'V']"
mp-1177393,Li4V3P8O29,4,False,-0.6642647123832108,-0.0983927810242769,-0.4330429407189685,False,-0.8280808986126025,2.1678069883443607,"['Li', 'O', 'P', 'V']"
mp-770386,LiMnAlO4,4,True,-0.620834616026972,-0.0594817249276427,0.3225290444938687,True,-0.0044624053348319,-0.454997676177619,"['Al', 'Li', 'Mn', 'O']"
mp-1246322,LiOsN2,3,False,2.136956063146541,-0.0602007115544459,-0.7954926975828739,False,1.800477394388468,1.4438983571594188,"['Li', 'N', 'Os']"
mp-777553,LiFeF4,3,True,-0.849299139957138,0.4426661774607215,1.4057480264308675,True,-0.276113829711399,-0.0418697085949801,"['F', 'Fe', 'Li']"
mp-1176615,LiMnV(P2O7)2,5,True,-0.6795126584103487,-0.1753080472462167,0.1011861983911022,True,-0.5787074695679653,0.2931172814272501,"['Li', 'Mn', 'O', 'P', 'V']"
mp-774300,Li3CoNi3O8,4,True,0.602787106567118,0.347877208240913,-0.8039564038425397,False,0.6220856184420177,-0.0583839948503693,"['Co', 'Li', 'Ni', 'O']"
mp-1306001,Li4Ni3SbO8,4,True,0.2056450766226944,0.3473710600719794,-0.7183036964947266,False,0.8235882436398597,-0.3648756807807231,"['Li', 'Ni', 'O', 'Sb']"
mp-1246596,Li2CuN,3,False,1.7614221748167018,0.2080789276377048,-0.6488335955153949,False,-0.2693784613893279,-0.7142849496705835,"['Cu', 'Li', 'N']"
mp-1223129,Li4SiO4,3,False,-0.7691510535103502,0.2767768454231353,2.552681789090627,True,-0.8701248678595392,2.04600965960357,"['Li', 'O', 'Si']"
mp-1207173,LiVSb,3,False,2.2181300316096024,-1.9559878899245176,-0.8682128617659177,False,0.51746132779342,-1.0477338811987154,"['Li', 'Sb', 'V']"
mp-643259,Li4H3ClO3,4,False,0.1312694447470407,0.6630065238873549,2.16348672044618,True,-1.5452395332645426,-0.4777020113308451,"['Cl', 'H', 'Li', 'O']"
mp-766566,Li12VFe3P4(CO7)4,6,True,-0.4244429208675501,0.0066531813463907,0.9206760932769322,True,-0.6688809669521177,0.3686308543633791,"['C', 'Fe', 'Li', 'O', 'P', 'V']"
mp-780780,LiMn3P3O11,4,True,-0.6278713673910865,-0.2398756441994056,1.3047929381655805,True,-0.3565507476213598,1.3888618321851267,"['Li', 'Mn', 'O', 'P']"
mp-985592,Li6PS5Cl,4,False,0.7192230895631763,0.8488550377550766,0.6860621557590112,True,-1.4121817101968288,-0.4531955472926291,"['Cl', 'Li', 'P', 'S']"
mp-1222551,Li3NdGa8,3,False,1.7147306630529329,-1.106839456936244,-0.8682128617659177,False,1.059381273913698,-0.5883087090907865,"['Ga', 'Li', 'Nd']"
mp-767633,Li4Ti9O20,3,False,-1.4015228769936543,-0.3928662507229715,0.4039160438868093,True,-0.2234684617227511,0.9473713936584512,"['Li', 'O', 'Ti']"
mp-1308156,Li3Fe2(SiO4)2,4,True,-0.5940290541157704,-0.0319156899712973,0.2802782228456199,True,-0.559854395580957,-0.1957731933692386,"['Fe', 'Li', 'O', 'Si']"
mp-758412,Li8Mn7Co(PO4)12,5,True,-0.5041666251477948,-0.0794080662323045,-0.8549417703507626,False,-0.4729176324910929,1.3436357253103868,"['Co', 'Li', 'Mn', 'O', 'P']"
mp-776546,LiFe2OF5,4,True,-0.6039579543576954,0.3037937625755043,0.6226859232866379,True,0.0472802804776504,-0.3736748175312423,"['F', 'Fe', 'Li', 'O']"
mp-977393,LiLu2Ru,3,False,1.7739376354840677,0.5394102667708282,-0.8682128617659177,False,4.092760195154169,-1.015618365677302,"['Li', 'Lu', 'Ru']"
mp-863377,Li2SnP2O7,4,False,-0.5634743229145368,0.1015543207465454,0.6494312350671799,True,-0.5752148633185301,-0.2211484759332589,"['Li', 'O', 'P', 'Sn']"
mp-768204,Li2Fe2S3,3,True,1.1846657231205993,0.4761765369614699,-0.8682128617659177,False,-0.5017979377893956,0.1795552345340701,"['Fe', 'Li', 'S']"
mp-776560,Li2MnVP2(O4F)2,6,True,-0.8278389760285583,-0.0633222015709707,-0.8040918231426937,False,-0.3919263770689671,0.3424161711261353,"['F', 'Li', 'Mn', 'O', 'P', 'V']"
mp-775337,Li4Fe2Ni3Sn3O16,5,True,0.318284331025769,0.2433310932484787,-0.7325904326610423,False,0.8796619743092225,-0.3599606385613487,"['Fe', 'Li', 'Ni', 'O', 'Sn']"
mp-779208,LiV2P4(HO8)2,5,False,-0.4687598701070752,-0.0669021552120273,-0.203371807656692,False,-0.5278982889206445,1.1456656601711015,"['H', 'Li', 'O', 'P', 'V']"
mp-17754,Li2MnF6,3,True,-0.947082526462653,0.5003293653583333,0.9707812343341502,True,-0.4338550248742938,-0.3903470300053741,"['F', 'Li', 'Mn']"
mp-758434,LiFeSiO4,4,True,-0.5481208202777508,-0.0812468489238829,0.8582477959056415,True,-0.4588206167297126,-0.2688602022650989,"['Fe', 'Li', 'O', 'Si']"
mp-989562,Cs2LiTlF6,4,False,-0.73169514789436,-2.267685839313191,1.4689888396030866,True,1.1738724701482044,-0.7232479409555709,"['Cs', 'F', 'Li', 'Tl']"
mp-1210003,NaLiHo2F8,4,False,-2.2532689259381136,0.2733722135256674,4.255647198185356,False,1.1913226613281986,-0.3507817775472583,"['F', 'Ho', 'Li', 'Na']"
mp-1175273,Li7Mn4CoO12,4,True,-0.0376954451688485,0.1201530426958914,-0.8682128617659177,False,0.0910886507479113,-0.5974909636242353,"['Co', 'Li', 'Mn', 'O']"
mp-569841,Ba19Li44,2,False,2.178516255452372,1.5585422837349394,-0.8682128617659177,False,-0.9824014346218878,11.010802545207405,"['Ba', 'Li']"
mp-768559,Li2V2Sn(PO4)3,5,False,-0.6268610364165447,-0.1007655680062916,-0.8682128617659177,False,-0.3121224699275758,0.2786878752451903,"['Li', 'O', 'P', 'Sn', 'V']"
mp-770287,Li3Sn(BO3)2,4,False,-0.4913439140582157,0.1329374884731337,-0.8076804345967918,False,-0.2925552199824926,0.2505745960654335,"['B', 'Li', 'O', 'Sn']"
mp-754916,Li4VCr(TeO6)2,5,False,-0.0479241172649168,0.1909319852206199,-0.3006705748178038,False,0.6517388694616163,-0.6516214730429126,"['Cr', 'Li', 'O', 'Te', 'V']"
mp-753125,LiCoSiO4,4,True,-0.379368842229648,0.01865964418775,0.0336796772640127,True,-0.7505208316448624,0.4907519942727706,"['Co', 'Li', 'O', 'Si']"
mp-1245578,LiPtN,3,False,1.900619670032995,-4.053404428874171,-0.8682128617659177,False,2.730938663871515,-1.105889989862615,"['Li', 'N', 'Pt']"
mp-761910,Li3Cu2F8,3,False,-0.4671913880743166,0.2133959240534231,-0.8679420231656085,False,-0.2454686104404709,-0.3880966602478122,"['Cu', 'F', 'Li']"
mp-761095,Li2TiMn2O6,4,True,-0.5292423521623725,-0.1761947903775621,-0.1156201011564826,False,-0.0694414849454954,0.8733220029997594,"['Li', 'Mn', 'O', 'Ti']"
mp-1100610,Li9Mn2Co5O16,4,True,0.1938954365058319,0.2267515580332521,-0.8682128617659177,False,0.2723183515324646,-0.404247092278232,"['Co', 'Li', 'Mn', 'O']"
mp-18968,Li2FeSiO4,4,True,-0.6483361408951679,0.0075206443354421,1.2467657680493147,True,-0.2953125539645606,-0.3002170091094508,"['Fe', 'Li', 'O', 'Si']"
mp-554131,SrLiCoF6,4,True,-1.1860295988461274,0.5096909411772562,0.6311496295463029,True,-0.0913188560140685,0.1815088749769836,"['Co', 'F', 'Li', 'Sr']"
mp-779299,Li3Mn4(BO3)4,4,True,-0.5361447805049218,-0.223279475039776,-0.8682128617659177,False,-0.3907567500335633,0.203005769522833,"['B', 'Li', 'Mn', 'O']"
mp-759509,Li2MnO2F,4,True,-0.5268016637129332,0.2011612450329742,0.6390039489552722,True,-0.3647105760280126,-0.5211521995009575,"['F', 'Li', 'Mn', 'O']"
mp-754994,LiFeF3,3,True,-0.8704465031914965,0.3737281385465556,1.3297100893940352,True,-0.3516185199894677,-0.5257174158706746,"['F', 'Fe', 'Li']"
mp-559715,Li2Cd(PO3)4,4,False,-0.656637689871113,0.0551017081451509,2.3289013955850777,True,-0.4444681324391594,1.510117568246015,"['Cd', 'Li', 'O', 'P']"
mp-559904,NaLi3SiO4,4,False,-0.7199540355169619,0.3080373118418523,2.245957074240358,True,-0.906935693230916,0.9387086560107974,"['Li', 'Na', 'O', 'Si']"
mp-763729,Li3NbFe3O8,4,True,-0.1667406839448923,-0.0685702395760991,-0.2829983561476227,False,0.3454971005302391,-0.7782144006974915,"['Fe', 'Li', 'Nb', 'O']"
mp-567157,Ba7Na5Li3N3,4,False,1.8899511911200415,1.2169890712696347,-0.8682128617659177,False,-0.6710396020655142,2.738031356275909,"['Ba', 'Li', 'N', 'Na']"
mp-807825,LiV2P4(HO8)2,5,False,6.606528146386586,1.799052531491364,-0.8682128617659177,False,-0.5339221933077333,0.3559074400511521,"['H', 'Li', 'O', 'P', 'V']"
mp-759225,Li2Cr4P4O15,4,False,-0.5354612758377939,-0.2076899597626645,0.5339862816853457,True,-0.6407983598984378,2.785021369104068,"['Cr', 'Li', 'O', 'P']"
mp-25849,LiVP2O7,4,False,-0.788677102386095,-0.1584773784704886,0.4965428451925866,True,-0.3861776296951995,0.1631450613644572,"['Li', 'O', 'P', 'V']"
mp-861753,LiNi4(PO4)3,4,True,-0.1898369531243479,0.0285007617893225,0.6749577731463304,True,0.283131741839328,1.1820732050449203,"['Li', 'Ni', 'O', 'P']"
mp-1185314,LiCd2Cu,3,False,2.0143471061371594,-1.806628939933592,-0.8682128617659177,False,2.524474344811161,-1.0499390086667937,"['Cd', 'Cu', 'Li']"
mp-774507,Li3(CoO2)5,3,True,0.512128017412932,0.2089997100074497,-0.8682128617659177,False,0.556382806976759,-0.2429535576057704,"['Co', 'Li', 'O']"
mp-859095,LiMnPO4,4,True,-0.6269421881105098,-0.1303091510567158,1.179800924122844,True,-0.630028057322093,-0.1670157757139567,"['Li', 'Mn', 'O', 'P']"
mp-1095754,Sr2LiCd,3,False,3.360697385397339,1.9714355785185849,-0.8682128617659177,False,-2.331655974549873,4.087529791985055,"['Cd', 'Li', 'Sr']"
mp-753589,Li2VCrO4,4,False,-0.5198763270704061,-0.1341986919950763,0.2465588171071127,True,0.1606447407589735,-0.8035968467600029,"['Cr', 'Li', 'O', 'V']"
mp-1176894,Li7Mn3P3(CO7)3,5,True,-0.4221920887457374,-0.0522489405010736,-0.6124058037737955,False,-0.7009283744426972,1.1688738313988398,"['C', 'Li', 'Mn', 'O', 'P']"
mp-756059,LiMn4(BO3)4,4,True,-0.4461358301987091,-0.3011385107563756,-0.6420626305076627,False,-0.4280927202197531,-0.5260440267947294,"['B', 'Li', 'Mn', 'O']"
mp-1100506,Li9Mn7O16,3,True,-0.1652481723137672,0.0400675179003935,-0.4894450792333779,False,0.1217010899449572,-0.3808640443965544,"['Li', 'Mn', 'O']"
mp-760273,LiAg2F5,3,False,0.3000522901211944,-0.584645276915068,-0.8682128617659177,False,0.4235859162929237,1.5418339272322037,"['Ag', 'F', 'Li']"
mp-1175781,Li9Mn2Co5O16,4,True,0.1631747363491041,0.2186496356376372,-0.6340728917985379,False,0.3034602419761513,-0.4134803812775574,"['Co', 'Li', 'Mn', 'O']"
mp-1211322,Li2Sm(NO3)5,4,False,0.5997837604005744,0.1270186883436132,1.6341326761416752,True,-0.6282714065333357,1.9975979387273368,"['Li', 'N', 'O', 'Sm']"
mp-759841,Li2Mn4OF8,4,True,-0.8917690039935379,0.1289615954880944,0.0296170982593726,True,-0.2892787960104943,1.0835179835206887,"['F', 'Li', 'Mn', 'O']"
mp-763098,Li2MnF4,3,True,-1.114585503075171,0.3894817975110929,1.9015857939470977,True,-0.8784494117272249,-0.9532511454631264,"['F', 'Li', 'Mn']"
mp-1236395,LiPrNdO2,4,False,-0.3391613780332566,0.2093063939194751,-0.8682128617659177,False,1.174113188565608,-0.9558688516983505,"['Li', 'Nd', 'O', 'Pr']"
mp-35091,Li31Zr2Sb13,3,False,1.4682643414717762,-0.9355688740821568,-0.8682128617659177,False,-0.1257634075557683,1.4276729288876386,"['Li', 'Sb', 'Zr']"
mp-753978,Li2FeNi3O8,4,True,0.7598195793322742,0.3047345187680315,-0.8682128617659177,False,0.4284735273276392,-0.8299279385655465,"['Fe', 'Li', 'Ni', 'O']"
mp-754926,Li2Mn2CoO6,4,True,0.100128611554074,0.0098895347457145,-0.1297037083725655,False,0.1803651292896049,-0.5732987041306364,"['Co', 'Li', 'Mn', 'O']"
mp-696949,Li3TeHO4,4,False,0.0351589263063074,0.514550745101894,1.5643917365620337,True,-0.3916158899114151,-0.5914475650291208,"['H', 'Li', 'O', 'Te']"
mp-772026,Li6V3P8O29,4,False,-0.7487340062526047,-0.0811874548507291,-0.1698555308684175,False,-0.7754622148128388,2.1158079925991364,"['Li', 'O', 'P', 'V']"
mp-1100694,Li9Mn2Co5O16,4,True,0.3282728830483534,0.2621907126766719,-0.8682128617659177,False,0.3097594330267189,-0.415323227757346,"['Co', 'Li', 'Mn', 'O']"
mp-758251,Li5AgF8,3,False,-0.678407968965126,0.1516306678078436,-0.5786186883852117,False,-0.4116238377243373,-0.7876241355174954,"['Ag', 'F', 'Li']"
mp-1175198,Li7Mn4CoO12,4,True,-0.1047989037431271,0.1024559520998916,-0.42417297655884,False,0.1508307993242986,-0.6118801101657846,"['Co', 'Li', 'Mn', 'O']"
mp-504348,Li3Cu(PO4)2,4,False,-0.4079889632247841,0.1826799750544572,-0.847222870241948,False,-0.7326097242797518,-0.2474251376596354,"['Cu', 'Li', 'O', 'P']"
mp-1222271,LiSi,2,False,2.3055024399464346,1.0827749580970842,-0.8682128617659177,False,-1.217541864551495,-1.0641477828500454,"['Li', 'Si']"
mp-774365,LiMn2F5,3,True,-1.0983630872322554,0.168204846030621,1.3839455191059702,True,-0.3598783303171632,0.0264854847763194,"['F', 'Li', 'Mn']"
mp-756534,Li4Mn5Ni3O16,4,True,0.2255312261631201,0.0443527454577923,-0.8682128617659177,False,0.4918109868711379,-0.4529213275844423,"['Li', 'Mn', 'Ni', 'O']"
mp-756039,Li4Mn3V2Cu3O16,5,True,0.1271940370881351,0.0722927104617286,-0.8682128617659177,False,0.3734348362000677,-0.4133686898867967,"['Cu', 'Li', 'Mn', 'O', 'V']"
mp-1666930,Li5Cr2Co3O10,4,True,0.0694772840180839,0.1102484619589339,-0.5856604919932527,False,0.4411144904081054,-0.2040532718175412,"['Co', 'Cr', 'Li', 'O']"
mp-1175250,Li7Mn4CoO12,4,True,0.2082016646573769,0.1850031044117469,-0.5604725021644895,False,0.140420216920147,-0.6094193636370868,"['Co', 'Li', 'Mn', 'O']"
mp-861664,LiTmAu2,3,False,1.3068479118925356,-8.17584092570632,-0.8682128617659177,False,5.753747191773374,-1.0169200053459937,"['Au', 'Li', 'Tm']"
mp-1177382,Li4MnCo5O12,4,True,0.2719261870309321,0.1354601229969906,-0.8682128617659177,False,0.4292794631295412,-0.6165334678472167,"['Co', 'Li', 'Mn', 'O']"
mp-759556,LiV3O5F3,4,False,-0.7410328856367766,-0.0987588613984322,-0.3658749678422651,False,-0.3152966705187836,-0.3702365137772194,"['F', 'Li', 'O', 'V']"
mp-753255,Li8(FeO2)5,3,True,0.1695658766610166,0.2323814665353331,-0.8682128617659177,False,-0.4231273360665692,-0.4772692239120776,"['Fe', 'Li', 'O']"
mp-571109,Li2Nd2Si3,3,False,1.5283664372216983,0.7136710248059484,-0.8682128617659177,False,0.5730856015325906,-0.4333255671748244,"['Li', 'Nd', 'Si']"
mp-1176036,Li9Mn2Co5O16,4,True,0.1737248308090112,0.2225698694766122,-0.8682128617659177,False,0.2693432494641846,-0.4033541701063478,"['Co', 'Li', 'Mn', 'O']"
mp-770256,Li4V2(SiO4)3,4,False,-0.8511730926593708,-0.0874821396959436,0.2318658230403337,True,-0.5668575044919947,0.102709660345483,"['Li', 'O', 'Si', 'V']"
mp-1175059,Li7Mn2(CoO4)3,4,True,0.1343408123562334,0.2145733132430563,-0.8682128617659177,False,0.2013907291781958,-0.6141050366399107,"['Co', 'Li', 'Mn', 'O']"
mp-775257,Li8Mn3Fe5(BO3)8,5,True,-0.4629985814844721,-0.1386254467660771,1.3528667897204787,True,-0.3788687519082246,0.2226983055452856,"['B', 'Fe', 'Li', 'Mn', 'O']"
mp-777622,LiFeF3,3,True,-0.8743665157344922,0.3726943197451884,1.469530516803705,True,-0.2893856016093304,-0.5456913721545854,"['F', 'Fe', 'Li']"
mp-1235581,LiBi2(IO)2,4,False,0.8283147293153597,0.8190771886503537,-0.8682128617659177,False,1.909602028074897,-0.7221603698777346,"['Bi', 'I', 'Li', 'O']"
mp-753769,Sr3Li3La5O12,4,False,-1.4285856770008485,-0.0346689198778678,1.2434479951955262,True,1.3010444457455477,-0.2528627061092295,"['La', 'Li', 'O', 'Sr']"
mp-26861,LiCo(PO3)4,4,True,-0.45072626987347,-0.0321385106380842,0.1371400225821608,True,-0.8204841455598758,0.212401515128918,"['Co', 'Li', 'O', 'P']"
mp-774432,K2Li3NiO4,4,True,0.3418857708592392,0.6551410470166161,0.3783895058076595,True,-0.531593679595657,0.2005501459784555,"['K', 'Li', 'Ni', 'O']"
mp-758448,Li5NiO3F,4,True,-0.048559217094973,0.595082495783668,-0.8682128617659177,False,-0.6987010876621734,-0.6697050933222272,"['F', 'Li', 'Ni', 'O']"
mp-1079408,Li5In4,2,False,1.745311053069544,-1.2972884198331758,-0.8682128617659177,False,0.6684349020685161,-0.7394268636296446,"['In', 'Li']"
mp-763240,LiCoSiO4,4,True,-0.3913603221211606,0.0154971498762937,0.0169553936949142,True,-0.5202910844322024,-0.7285624924137811,"['Co', 'Li', 'O', 'Si']"
mp-1174771,Li6Mn3CoO10,4,True,-0.0938312336379682,0.1277906079606226,-0.2209763166767957,False,0.1737017892912715,-0.7294768985618514,"['Co', 'Li', 'Mn', 'O']"
mp-26819,LiMnPO4,4,True,-0.6776597873628549,-0.1436848244996406,1.6098926214139937,True,-0.6147917301002029,-0.1756310784771223,"['Li', 'Mn', 'O', 'P']"
mp-1222796,Li2CoCl4,3,True,0.6260069243826795,-0.0626261674647086,-0.8682128617659177,False,-0.720357221915929,-0.4682957755672101,"['Cl', 'Co', 'Li']"
mp-764685,LiVOF3,4,False,-1.0836789412056027,0.2044441348626075,0.6408998191574365,True,-0.7087725615449768,-0.3052957912324375,"['F', 'Li', 'O', 'V']"
mp-552024,Li(CoO2)2,3,True,0.5490502437770352,0.1927100596895926,-0.8682128617659177,False,0.6431417287900739,-0.8538527740946841,"['Co', 'Li', 'O']"
mp-757075,Li2TiVO4,4,False,-0.8558119190782958,-0.1590506514505354,-0.5039349443499248,False,0.0574219193311923,-0.5755885669654186,"['Li', 'O', 'Ti', 'V']"
mp-26903,Li3V2(PO4)3,4,False,-0.782471779556501,-0.1113296343265795,0.3599047713365506,True,-0.413872902991665,0.010085035487717,"['Li', 'O', 'P', 'V']"
mp-1249890,LiAlSi2H2O7,5,False,-0.2907974700400137,0.1690940210082938,0.8637322775619044,True,-0.9937721250639264,-0.3739414103546317,"['Al', 'H', 'Li', 'O', 'Si']"
mp-1200615,Li4Zn(PO4)2,4,False,-0.7500877523674543,0.193690147550096,2.286244316036364,True,-0.6555644335288153,0.721888242120511,"['Li', 'O', 'P', 'Zn']"
mp-1174777,Li5Mn3O8,3,True,-0.1111283180028058,0.1201050665493279,-0.8682128617659177,False,-0.0348480800507944,-0.813501910622059,"['Li', 'Mn', 'O']"
mp-776954,Li2MnPHO5,5,True,-0.4198392966181241,0.0779653679917868,1.4715618063060247,True,-0.5763083774041187,-0.6379688460582107,"['H', 'Li', 'Mn', 'O', 'P']"
mp-1222630,Li3FeIrO5,4,True,0.187139702876754,0.2019276555177338,-0.8682128617659177,False,1.6085550573719003,-0.6945217397183351,"['Fe', 'Ir', 'Li', 'O']"
mp-776683,Li3FeF5,3,True,-0.9749407251562872,0.5154502219481567,2.4221375837415504,True,-0.5392246800599988,0.9983145832313416,"['F', 'Fe', 'Li']"
mp-556014,Li3Ga(BO3)2,4,False,-0.6978201771018502,0.1022148962693151,1.9540607727570225,True,-0.6690905738343957,-0.5122811543015268,"['B', 'Ga', 'Li', 'O']"
mp-757672,LiCoPO4,4,True,-0.4231664144974964,0.0075170300160768,1.029485500951188,True,-0.4760919594902733,-0.2229026884159775,"['Co', 'Li', 'O', 'P']"
mp-1222290,LiMgIn2,3,False,2.085932903769704,1.431854008521296,-0.8682128617659177,False,0.7522609817503977,-0.9815308749058028,"['In', 'Li', 'Mg']"
mp-1185400,LiPr2Rh,3,False,1.835427673185164,0.6544603968829631,-0.8682128617659177,False,1.9890738976885491,-0.9588190391052872,"['Li', 'Pr', 'Rh']"
mp-757576,Li3P2WO9,4,False,-0.6539663820484427,-0.0660284695161385,1.4206441494478788,True,0.1047396605370411,0.7776511690146216,"['Li', 'O', 'P', 'W']"
mp-1235710,LiTiFe5O8,4,True,0.1332356440097302,-0.2006154473810931,-0.1454800568405816,False,0.5145520607208218,-0.7479427650822297,"['Fe', 'Li', 'O', 'Ti']"