material_id,formula_pretty,n_elements,contains_transition_metal,formation_energy_per_atom,energy_per_atom,band_gap,is_semiconductor,density,volume,elements
mp-768335,Li3(FeS2)2,3,True,1.09207316021052,0.5623585448072314,-0.8682128617659177,False,-0.6491883867796623,0.5610184212820432,"['Fe', 'Li', 'S']"
mp-769513,Li4Ti3Mn6O18,4,True,-0.5233169288223659,-0.2405355534941603,-0.4678457008587128,False,0.0585152034021421,0.7334084625904942,"['Li', 'Mn', 'O', 'Ti']"
mp-768492,Li8TiMn3(PO4)6,5,True,-0.8053524160857373,-0.0683987805578821,0.0531123468362041,True,-0.6436347884184289,0.2030284607879672,"['Li', 'Mn', 'O', 'P', 'Ti']"
mp-676109,Li3InCl6,3,False,0.1117912657599848,1.0002093807117798,1.4156336353421572,True,-0.7776640804654278,2.634543032414101,"['Cl', 'In', 'Li']"
mp-1174775,Li6Mn3CoO10,4,True,-0.0806446307758976,0.1312682901913413,-0.2143407709692182,False,0.1248352685588811,-0.7200397123866675,"['Co', 'Li', 'Mn', 'O']"
mp-765488,Li3V3P8O29,4,False,-0.6087545787128266,-0.1048716095629264,-0.0353841658148558,False,-0.8474731654710398,2.180754907405658,"['Li', 'O', 'P', 'V']"
mp-726695,Li3Ti3Fe(PO4)6,5,True,2.9437250144346963,0.8319960460492885,-0.8682128617659177,False,-0.6233856256178781,1.4501397748454588,"['Fe', 'Li', 'O', 'P', 'Ti']"
mp-1174514,Li7Mn2(CoO4)3,4,True,0.0998572327394782,0.2054790125092634,-0.2971496730137837,False,0.2135467479376725,-0.616891244783915,"['Co', 'Li', 'Mn', 'O']"
mp-561254,NaLi3GeO4,4,False,-0.2838286234283641,0.4489207167623761,1.6889097830542292,True,-0.5400886566884068,1.113870833236683,"['Ge', 'Li', 'Na', 'O']"
mp-1100604,Li9Mn2Co5O16,4,True,0.1742319025982071,0.2215657248676553,-0.8682128617659177,False,0.2779944017470243,-0.4059453665227723,"['Co', 'Li', 'Mn', 'O']"
mp-772396,Li2Cr2O7,3,False,0.1643510226844448,0.0585687301207081,0.7044114709299655,True,-0.6443382938846784,-0.4472333848524295,"['Cr', 'Li', 'O']"
mp-1176189,Li9Mn2Co5O16,4,True,0.1860134942485137,0.2246728656802224,-0.7853362500712762,False,0.2615958133716137,-0.4010199210077225,"['Co', 'Li', 'Mn', 'O']"
mp-1177654,Li3MgTi8O16,4,False,-1.3591093845977988,-0.3708159811761373,-0.8682128617659177,False,-0.0333945463113378,-0.3517412280977732,"['Li', 'Mg', 'O', 'Ti']"
mp-777312,Li4Sn2P4H3O16,5,False,-0.3799627687139995,0.1712068514339274,-0.6887822890610142,False,-0.4690410829225176,-0.2190033254632938,"['H', 'Li', 'O', 'P', 'Sn']"
mp-1177023,Li6V5O12,3,False,-0.5225901552325912,-0.0655565172237331,-0.8682128617659177,False,-0.0054186196964171,-0.6124136332383013,"['Li', 'O', 'V']"
mp-1222986,Li3Fe(MoO4)3,4,True,-0.1245909921284286,-0.1144904670612954,0.6918174760155834,True,0.0022006386427513,1.6053525525719798,"['Fe', 'Li', 'Mo', 'O']"
mp-776472,Li3Mn4(BO3)4,4,True,-0.5366762777244031,-0.2234196459735033,-0.8531136097986756,False,-0.404057959947897,-0.5130186241067334,"['B', 'Li', 'Mn', 'O']"
mp-1236152,LiCuAuO2,4,False,1.1291430447380288,0.7236554469245313,-0.8682128617659177,False,3.0670412994238583,-1.06586834775983,"['Au', 'Cu', 'Li', 'O']"
mp-1110973,Cs2LiNdF6,4,False,-1.695767668159634,-1.8325109069325096,3.9087029511891576,True,0.6372986397662371,-0.6967590355267719,"['Cs', 'F', 'Li', 'Nd']"
mp-23702,LiH2N,3,False,1.522014067008717,0.7043031272389515,1.255026345358748,True,-1.6884691125227067,-0.8790705879410433,"['H', 'Li', 'N']"
mp-1222673,Li2GaCu3,3,False,1.9728450093628505,-0.2987173362955383,-0.8682128617659177,False,1.1561887433763676,-0.9981167566255142,"['Cu', 'Ga', 'Li']"
mp-1211203,LiCe(WO4)2,4,False,-0.7142534084457766,-0.423040504346296,-0.7885186036249097,False,1.8694599398048453,-0.2963211216012136,"['Ce', 'Li', 'O', 'W']"
mp-774235,LiCr3O4,3,False,-0.089800528277856,-0.3222847383618833,-0.8116075943012772,False,0.4023425762018243,-0.9881031581979122,"['Cr', 'Li', 'O']"
mp-780109,Li4Cr5(P3O11)2,4,False,-0.6146045560250495,-0.1701259548866683,0.4329634837699811,True,-0.5180513725194341,1.4222424163904936,"['Cr', 'Li', 'O', 'P']"
mp-752712,LiFeB2O5,4,True,-0.4742567243364023,-0.14916925093536,0.5294497351301646,True,-0.2396300014896565,-0.3085572219412823,"['B', 'Fe', 'Li', 'O']"
mp-779337,Li5V6O5F19,4,False,-1.0800713408798706,0.216415425230846,-0.0991666561876933,False,-0.6075123634020272,0.0799689418711893,"['F', 'Li', 'O', 'V']"
mp-782660,LiMnP3H8O13,5,True,0.0034411945728984,0.2138864276013848,1.782349100160933,True,-1.004762893871914,0.3435753957999726,"['H', 'Li', 'Mn', 'O', 'P']"
mp-770769,Li7Co5O12,3,True,0.3424089687800507,0.3184962203562778,-0.8682128617659177,False,0.4738284101027671,-0.662506847394069,"['Co', 'Li', 'O']"
mp-1236541,CsLiTa(PO4)2,5,False,-0.8289715627562294,-0.1328043853855272,-0.7582523900403466,False,0.0627634259600757,-0.6010727966906022,"['Cs', 'Li', 'O', 'P', 'Ta']"
mp-1235516,LiY5(MoO6)2,4,False,-1.3718869228829396,-0.4989611315533956,-0.7899405062765341,False,1.0169590748443784,-0.4781417089070506,"['Li', 'Mo', 'O', 'Y']"
mp-774449,Li2Ti3SbO8,4,False,-1.0163875081797744,-0.2052560441347844,-0.8682128617659177,False,0.2747895161014188,-0.2995747582162341,"['Li', 'O', 'Sb', 'Ti']"
mp-560518,RbLi2Be2F7,4,False,-1.5613067361141626,0.506218633749386,4.015345650060939,False,-0.7853331602771794,0.6256224253248764,"['Be', 'F', 'Li', 'Rb']"
mp-1235382,Li(SiO2)6,3,False,-1.1422997172188731,-0.1954705167590425,-0.8682128617659177,False,-0.9224310916543844,-0.4952173298856929,"['Li', 'O', 'Si']"
mp-758739,Li5V5O12,3,False,-0.5259599219427713,-0.1079279396407327,-0.240815244149451,False,-0.0579338068412793,0.0219654979711686,"['Li', 'O', 'V']"
mp-1174235,Li3MnCoO5,4,True,0.0612266321893753,0.1981134271749979,-0.6514742718684097,False,0.166856794799039,-0.7233861740269124,"['Co', 'Li', 'Mn', 'O']"
mp-758732,Li9Co13O28,3,True,0.5089918313748915,0.2312025094078201,-0.8601554134067164,False,0.5675903173394323,0.0929423204380695,"['Co', 'Li', 'O']"
mp-765341,LiCuF4,3,False,-0.1604817811902121,0.251813149010989,-0.8682128617659177,False,-0.0094043335621027,-0.4861887423898829,"['Cu', 'F', 'Li']"
mp-1235307,LiV6O11F,4,False,-0.5438175341419811,-0.3265202585457838,-0.438865970625619,False,0.3277753921693924,-0.6641543202047224,"['F', 'Li', 'O', 'V']"
mp-759929,LiMn2F7,3,True,-0.9434254352996584,0.3141824062860387,-0.5958846491549282,False,-0.3009006176322653,0.2135150002333573,"['F', 'Li', 'Mn']"
mp-769563,Li4V3Cr3(TeO8)2,5,False,-0.2775896937345116,-0.0815677485367115,-0.3020924774694276,False,0.4984863347321431,-0.3338735088518626,"['Cr', 'Li', 'O', 'Te', 'V']"
mp-1174169,Li4Mn3CoO8,4,True,-0.0321471707638339,0.0461924961760986,-0.4992629784945903,False,0.2414373318707978,-0.7955161111690479,"['Co', 'Li', 'Mn', 'O']"
mp-1977436,Li7Mn4CoO12,4,True,-0.097274860867788,0.1044402562064476,-0.6556045605231263,False,0.1491852662980858,0.0151643717295406,"['Co', 'Li', 'Mn', 'O']"
mp-680395,Li3As7,2,False,1.7844439255016449,-1.185534269746794,0.1748542976752286,True,0.1131989728468002,9.435055764210976,"['As', 'Li']"
mp-1094559,LiMg2,2,False,2.161594643237468,1.0715205770685556,-0.8682128617659177,False,-1.5669099066636734,-0.8598617303109342,"['Li', 'Mg']"
mp-1100552,Li9Mn7O16,3,True,-0.1795651859982489,0.0362917141844348,-0.4606007683004393,False,0.1210273283163826,-0.3806444340000654,"['Li', 'Mn', 'O']"
mp-775027,Li2Mn3CoO8,4,True,0.0587374563617758,-0.0627264385356997,-0.3997975025310034,False,0.3284338138156286,-0.8247815366034424,"['Co', 'Li', 'Mn', 'O']"
mp-1175089,Li7Mn2(CoO4)3,4,True,0.0983668262421818,0.2050859499254872,-0.3582914870336056,False,0.2441723209327423,-0.6238016769021655,"['Co', 'Li', 'Mn', 'O']"
mp-757471,Li2V(SiO3)3,4,False,-0.9872491971083174,-0.1473839268777345,0.5749506199821248,True,-0.8892209571026386,1.08349948031277,"['Li', 'O', 'Si', 'V']"
mp-863727,LiTiRh2,3,False,1.4629657766619373,0.1450302975813362,-0.8682128617659177,False,2.898576281926797,-1.08353891721024,"['Li', 'Rh', 'Ti']"
mp-867824,LiAg3F8,3,False,0.4973932813819241,-0.5415388599381826,-0.8682128617659177,False,0.7800925137376729,-0.2968882094327106,"['Ag', 'F', 'Li']"
mp-1277730,Li2V3CrO8,4,False,-0.5608351087216423,-0.2734878597254078,-0.1089168457988277,False,0.0533865396103806,-0.370065615879141,"['Cr', 'Li', 'O', 'V']"
mp-21735,LiFe5O8,3,True,0.288223232074453,-0.1228586713306564,0.0583936995422352,True,0.4953383977417692,0.5307718779198292,"['Fe', 'Li', 'O']"
mp-1266205,Li3VSi4(HO6)2,5,False,-0.846216747208517,-0.0385859513002121,0.7544489023371066,True,-0.8627316509927991,0.2354116065510302,"['H', 'Li', 'O', 'Si', 'V']"
mp-758451,LiV(PO3)3,4,False,-0.6821776631756429,-0.128594625501465,0.8839097532849463,True,-0.6720184579910903,-0.2085506102608195,"['Li', 'O', 'P', 'V']"
mp-553988,Cs2LiF3,3,False,-1.0283173841101876,-1.7297486537643565,2.9980081576491746,True,0.2999015520551994,-0.4849649251192912,"['Cs', 'F', 'Li']"
mp-774042,Li8Mn5Fe3(BO3)8,5,True,-0.513854527656999,-0.1604034569941763,1.2047857850013752,True,-0.3553960150624281,0.2040750286959036,"['B', 'Fe', 'Li', 'Mn', 'O']"
mp-19896,Li2GePbS4,4,False,1.0039850817691554,0.7623771047577804,0.6653430028353505,True,0.2342601159828769,-0.7446877018464495,"['Ge', 'Li', 'Pb', 'S']"
mp-1174492,Li5Mn3O8,3,True,-0.1588111355398837,0.1075297513605864,-0.8682128617659177,False,0.0479064729664867,-0.8272450670005262,"['Li', 'Mn', 'O']"
mp-779056,Li2FeP2O7,4,True,-0.656311336414888,-0.0307784944834354,1.9381490049888512,True,-0.6331971510930735,0.4286897095410714,"['Fe', 'Li', 'O', 'P']"
mp-1185315,Li3La3(MoO6)2,4,False,-1.0117012714182547,-0.2020331463927714,1.0611736171873756,True,1.010343654345176,1.7568019310206833,"['La', 'Li', 'Mo', 'O']"
mp-704734,Li2V18O39,3,False,-0.4779276177652406,-0.3591492505712402,-0.8682128617659177,False,-0.0612453329737206,0.7995141897592497,"['Li', 'O', 'V']"
mp-26611,LiFePO4,4,True,-0.4953332214735573,-0.066917206389144,1.5176720780086812,True,-0.2285365090636132,0.0933488553195958,"['Fe', 'Li', 'O', 'P']"
mp-777781,Li2FeF4,3,True,-0.9517776229248048,0.4611017830378777,1.4453581717261017,True,-0.9470636423558288,-0.0410486417618203,"['F', 'Fe', 'Li']"
mp-11906,LiPr2IrO6,4,False,-0.7980765171756902,-0.1232151798976946,-0.8682128617659177,False,2.591061804185565,-0.5123072165472509,"['Ir', 'Li', 'O', 'Pr']"
mp-1174551,Li7Mn2(CoO4)3,4,True,0.178705293112482,0.2262734886418959,-0.8682128617659177,False,0.1921943915849081,-0.6119805379541227,"['Co', 'Li', 'Mn', 'O']"
mp-753864,Sr2Li2Nb4O13,4,False,-1.226763204401336,-0.3312840121488577,0.0965142325357669,True,0.573078352140735,-0.4380129571186377,"['Li', 'Nb', 'O', 'Sr']"
mp-1238786,Li(CrS2)2,3,False,0.9812336284510788,0.2320442584515789,-0.8682128617659177,False,-0.3789950790915699,-0.5176732699893545,"['Cr', 'Li', 'S']"
mp-758092,LiCoPO4,4,True,-0.3743175707528177,0.0203998594801131,0.7500477750820806,True,-0.1228082462512009,-0.3732063196332212,"['Co', 'Li', 'O', 'P']"
mp-1232420,LiMg2Ir,3,False,1.7979075773084456,0.9967955075950004,-0.8682128617659177,False,1.869895449278854,-1.056633787508066,"['Ir', 'Li', 'Mg']"
mp-753062,Li5NiOF5,4,True,-0.8718338166960262,0.5872791154240977,-0.8682128617659177,False,-0.8022981715287458,-0.4698202341372173,"['F', 'Li', 'Ni', 'O']"
mp-975608,Li2TlPt,3,False,1.69371698550095,-5.953033782066321,-0.8682128617659177,False,4.662160031043419,-1.0532372511672767,"['Li', 'Pt', 'Tl']"
mp-753981,Li2Mn7F18,3,True,-0.9952660227417957,0.1758490705090649,-0.3737292872512344,False,-0.3753821396753468,-0.1249252024306168,"['F', 'Li', 'Mn']"
mp-1175092,Li7Mn2(CoO4)3,4,True,0.2559234025499103,0.2466381003534274,-0.8682128617659177,False,0.0758486329677101,-0.5837974851354895,"['Co', 'Li', 'Mn', 'O']"
mp-757409,Li4Mn3SnO8,4,True,-0.1709351734599858,0.0662386570298293,-0.607598418618305,False,0.4767616143856497,-0.2942026882044595,"['Li', 'Mn', 'O', 'Sn']"
mp-759806,Li3CoOF3,4,True,-0.7263512764356245,0.4930838515257719,-0.6485627569150855,False,-0.1625723691250194,-0.4028160882053753,"['Co', 'F', 'Li', 'O']"
mp-754766,LiVF4,3,False,-1.290513631830102,0.296619164257218,0.6358215954016381,True,-0.6271581135130172,-1.0099373693552745,"['F', 'Li', 'V']"
mp-1235238,LiTi3V5O16,4,False,-0.8993836850354441,-0.44143987588862,-0.2644459120264372,False,0.114188021360266,-0.429509285258808,"['Li', 'O', 'Ti', 'V']"
mp-1172964,Li2NiPO4F,5,True,-0.5677960617745038,0.2052357390645017,1.931445749631197,True,-0.2897639978337508,-0.6988464083728997,"['F', 'Li', 'Ni', 'O', 'P']"
mp-759738,LiFeSiO4,4,True,-0.5740346928698412,-0.0880810741739541,1.179597795172612,True,-0.9418845520362716,-0.6041235138333433,"['Fe', 'Li', 'O', 'Si']"
mp-1275349,Li2CoCuO4,4,True,0.5086612920808933,0.4092263498495225,-0.8682128617659177,False,0.6039362076527401,-0.8252000147366753,"['Co', 'Cu', 'Li', 'O']"
mp-1097074,LiCaTl2,3,False,3.345227466196074,-5.977597735458176,-0.8352382621782626,False,-2.1661224100072958,3.02493681547746,"['Ca', 'Li', 'Tl']"
mp-1097049,LiMn2P2O9,4,True,-0.4483202221408791,-0.1461850015046834,-0.8651659275124389,False,-0.3368125470141002,0.6684660335305032,"['Li', 'Mn', 'O', 'P']"
mp-778314,LiVF4,3,False,-1.281115120097733,0.2990978191153903,-0.8682128617659177,False,-0.7788268393102699,0.747577723311473,"['F', 'Li', 'V']"
mp-1445091,LiMn3(O2F)2,4,True,4.928266864665477,1.3002752376855915,-0.8682128617659177,False,0.2657035219074843,-0.9216567695298964,"['F', 'Li', 'Mn', 'O']"
mp-777289,LiV2(OF)3,4,False,-0.8272925797429717,0.009681506091008,-0.1179899389091887,False,-0.2228975127654142,-0.3380477907687566,"['F', 'Li', 'O', 'V']"
mp-768752,Li3Mn2P2(CO7)2,5,True,-0.3103919827288284,-0.0898503095857031,-0.8682128617659177,False,-0.7111610871475748,0.3343829592130222,"['C', 'Li', 'Mn', 'O', 'P']"
mp-12815,Na2LiAu3,3,False,1.6547621264938548,-5.823518843886152,-0.8682128617659177,False,3.708394227148863,-0.5737601781681222,"['Au', 'Li', 'Na']"
mp-1175721,Li9Mn2Co5O16,4,True,0.177350563812441,0.2223882045314335,-0.8682128617659177,False,0.2940984977726947,-0.4107262749361136,"['Co', 'Li', 'Mn', 'O']"
mp-1581648,LiCoBO3,4,True,-0.2335672112703081,-0.0009336631299048,1.0457358169697455,True,-0.4446698941296085,-0.4631343927115076,"['B', 'Co', 'Li', 'O']"
mp-943462,LiFeHSO5,5,True,0.0649497383678906,0.1808331030606658,1.89975763339501,True,-0.3420345596260634,-0.1968232181289565,"['Fe', 'H', 'Li', 'O', 'S']"
mp-755356,Li2FeF4,3,True,-0.9315751193803172,0.4664297578261974,1.5062291471456135,True,-0.4255253759491811,-1.0137850529979546,"['F', 'Fe', 'Li']"
mp-850885,LiMn2(BO3)2,4,True,-0.4861389713472336,-0.2585809771456535,-0.343801621917058,False,-0.4275553031725363,0.2070882765112373,"['B', 'Li', 'Mn', 'O']"
mp-1100750,Li9Mn2Co5O16,4,True,0.2086851636677189,0.2306520297382137,-0.8682128617659177,False,0.2316494194485382,-0.3918731900468754,"['Co', 'Li', 'Mn', 'O']"
mp-867926,LiInPd2,3,False,1.4974044026456583,-3.208202698012035,-0.8682128617659177,False,3.4410122118997517,-1.0577466907450088,"['In', 'Li', 'Pd']"
mp-560667,CsLi(PO3)2,4,False,-0.7969613452960305,0.0712007919308966,2.7097681772700146,True,-0.4446081670064747,2.4637882028301754,"['Cs', 'Li', 'O', 'P']"
mp-770756,Li3SiSnBO7,5,False,-0.6896866307549824,0.0963568120370901,1.6536330553639442,True,-0.2661286899830828,-0.4073759676728785,"['B', 'Li', 'O', 'Si', 'Sn']"
mp-1177040,Li6Mn3V(PO4)6,5,True,-0.6860753041246701,-0.0876068822451065,-0.8616450257084175,False,-0.5283818590252382,1.4414817168212033,"['Li', 'Mn', 'O', 'P', 'V']"
mp-764465,LiFe2(BO3)2,4,True,-0.3295478569599022,-0.1807779158644619,0.226855308934612,True,-0.3541348906142524,0.1686501263969997,"['B', 'Fe', 'Li', 'O']"
mp-1173901,Li2MnCoO4,4,True,0.116324386182553,0.1221357308616875,-0.8682128617659177,False,0.3092664826041144,-1.019885269210739,"['Co', 'Li', 'Mn', 'O']"
mp-865750,Li2TeO3,3,False,-0.0441051909332906,0.4726763831104183,1.3943728052178777,True,-0.2151198328437586,-0.7081856769497193,"['Li', 'O', 'Te']"
mp-780140,Li5(CoO2)4,3,True,0.3564717618010738,0.3072702183084076,-0.4643925087047687,False,0.6973168441561947,-0.4408749365162802,"['Co', 'Li', 'O']"
mp-1175889,Li9Mn2Co5O16,4,True,0.2708776060679649,0.2470539456890193,-0.7440333635241096,False,0.2913912188837103,-0.4099263954816362,"['Co', 'Li', 'Mn', 'O']"
mp-1246483,Li6ReN4,3,False,1.3641431665132917,-0.8248036009364498,-0.8682128617659177,False,0.3345361796824482,-0.5976291963558268,"['Li', 'N', 'Re']"
mp-755803,Li2AlFeO4,4,True,-0.5686011277853887,0.0894706800000965,1.2974802959572298,True,-0.5635597747819724,-0.7081641028497262,"['Al', 'Fe', 'Li', 'O']"
mp-1661729,Li2CoSn(PO4)2,5,True,-0.4256963998961136,0.0715909490232909,0.6565407483252987,True,-0.0701879275796696,0.7689268853577905,"['Co', 'Li', 'O', 'P', 'Sn']"
mp-757464,LiNb(PO3)4,4,False,-0.6804462370683944,-0.1405625140181104,-0.7570336163389549,False,-0.543604616813507,0.1189645652799059,"['Li', 'Nb', 'O', 'P']"
mp-1100668,Li9Mn2Co5O16,4,True,0.2440814309619391,0.2399870321713993,-0.8682128617659177,False,0.2952198809440968,-0.4110571410162308,"['Co', 'Li', 'Mn', 'O']"
mp-1235894,Sr4LiSm2Ta2O12,5,False,-1.4402949224566204,-0.2396753459541109,-0.8682128617659177,False,1.903092632839301,-0.3568941200452808,"['Li', 'O', 'Sm', 'Sr', 'Ta']"
mp-766569,Li4FeNi5(PO4)6,5,True,-0.2795274727328889,0.0414964014308794,-0.8682128617659177,False,-0.1607045037175487,0.055381299798133,"['Fe', 'Li', 'Ni', 'O', 'P']"
mp-760333,Li5VCr3O8,4,False,-0.3103975076525701,-0.0309035986734344,-0.0180504953950613,False,0.1420645771033327,-0.3436032753442016,"['Cr', 'Li', 'O', 'V']"
mp-757669,LiCuC2O5,4,False,0.3907554680570711,0.0554979613322852,0.0656386321005087,True,-0.8263142570944115,0.0925535811432714,"['C', 'Cu', 'Li', 'O']"
mp-1287629,Li2Mn3NbO8,4,True,-0.3888571439776435,-0.242278840735324,-0.2305233773376981,False,0.2496764525723491,-0.3088005359001753,"['Li', 'Mn', 'Nb', 'O']"
mp-4558,Li4GeO4,3,False,-0.3563722969705896,0.4115030732451933,1.905242115051273,True,-0.3626941182291585,-0.7467144785106214,"['Ge', 'Li', 'O']"
mp-1291398,Li2V5O10,3,False,-0.5263413222219924,-0.2849093189100194,-0.2131219972678263,False,-0.048718443202714,-0.1205014247226056,"['Li', 'O', 'V']"
mp-754565,LiFe6O7F5,4,True,-0.0806111269682382,0.0372225812452746,0.3518473229773493,True,0.4615235424372874,-0.6452701486393927,"['F', 'Fe', 'Li', 'O']"
mp-1174340,Li7Co5O12,3,True,0.3842602524242727,0.3295335941958223,-0.8682128617659177,False,0.3738320698833136,-0.6425404040829167,"['Co', 'Li', 'O']"
mp-776497,Li2La3Ti2Nb2O13,5,False,-1.4713808408738551,-0.4179727753249755,-0.8682128617659177,False,1.252292091322408,-0.4533713321276257,"['La', 'Li', 'Nb', 'O', 'Ti']"
mp-37399,Li7NbO6,3,False,-0.479794710833448,0.3106627060308918,1.527083719369429,True,-0.5457158031412868,-0.8501051276051682,"['Li', 'Nb', 'O']"
mp-780180,Li3Mn4(BO3)4,4,True,-0.5427794300623886,-0.2250292208321069,-0.7019179611760147,False,-0.4005878871466962,0.9336625049850044,"['B', 'Li', 'Mn', 'O']"
mp-1174194,Li3MnCoO5,4,True,0.1339688686672105,0.2172976238834126,-0.8682128617659177,False,0.1098270986328136,-0.7121767552613745,"['Co', 'Li', 'Mn', 'O']"
mp-29165,Li3Si3Ag2,3,False,2.132754281756551,1.0970000175099028,-0.8682128617659177,False,0.3822110119077675,-0.5262256739394428,"['Ag', 'Li', 'Si']"
mp-764671,LiMn7O7F,4,True,-0.0776160768866048,-0.3421524249872656,-0.8682128617659177,False,0.0594126873142474,-0.5855479626243263,"['F', 'Li', 'Mn', 'O']"
mp-777497,Li2VO2F,4,False,-0.76572359833117,0.1418131628130225,-0.1281463864207871,False,-0.2011805482693004,-0.9161629394021068,"['F', 'Li', 'O', 'V']"
mp-759745,Li4V3P8O29,4,False,-0.6592875397650425,-0.097080159043129,-0.387948313767472,False,-0.8115794736474834,2.1346982612597647,"['Li', 'O', 'P', 'V']"
mp-777195,LiFe7(O3F5)2,4,True,-0.2368877132578214,0.1461307959751548,0.1746511687249967,True,0.3293115853119722,-0.4652566725799477,"['F', 'Fe', 'Li', 'O']"
mp-1174493,Li7Mn2(CoO4)3,4,True,0.0798393994306889,0.2001997405145248,0.0164814261443728,True,0.2319573438030715,-0.6210639707693347,"['Co', 'Li', 'Mn', 'O']"
mp-1100516,Li9Mn7O16,3,True,-0.1763429319066032,0.0371415142363958,-0.8682128617659177,False,0.1116326375571895,-0.3775705009822084,"['Li', 'Mn', 'O']"