material_id,formula_pretty,n_elements,contains_transition_metal,formation_energy_per_atom,energy_per_atom,band_gap,is_semiconductor,density,volume,elements
mp-759653,LiBi2PO6,4,False,-0.2486608558946689,0.1735398187592456,1.0892731219694642,True,1.7857464659751043,0.4107478643735361,"['Bi', 'Li', 'O', 'P']"
mp-759380,Li2VCrO4,4,False,-0.5002725120690544,-0.1290286084036005,0.3223259155436362,True,0.1687085942597519,-0.8049054360299565,"['Cr', 'Li', 'O', 'V']"
mp-759056,Li4Ti2Mn3O10,4,True,-0.6788351008872897,-0.1733574227666209,-0.2345859563423374,False,0.1588671555385683,-0.1600311005505873,"['Li', 'Mn', 'O', 'Ti']"
mp-1314136,LiMnCo3O8,4,True,0.5838672858483798,0.0845408968557437,-0.4675071526083262,False,0.3296864708607659,-0.4094070446286473,"['Co', 'Li', 'Mn', 'O']"
mp-1235100,LiMn6O5F7,4,True,-0.5239684537803131,-0.0504404016168655,-0.8682128617659177,False,0.2001798307923971,-0.587421151147233,"['F', 'Li', 'Mn', 'O']"
mp-759492,LiMnF3,3,True,-1.1357396263524446,0.263606712765379,1.6630446967246917,True,-0.5076203433349182,0.2861426336405758,"['F', 'Li', 'Mn']"
mp-705340,LiVP2O7,4,False,-0.7995257513553606,-0.1613384757631231,0.5522678872062228,True,-0.5443789268938011,0.2759780024962295,"['Li', 'O', 'P', 'V']"
mp-18422,RbLiZn2O3,4,False,0.1967985088062459,0.7511832055825584,0.528163251778696,True,0.6349806927307851,-0.1311725694803859,"['Li', 'O', 'Rb', 'Zn']"
mp-757954,Li2P2WO8,4,False,-0.6159774580991684,-0.1233265285121069,1.0581266829338951,True,0.3173173776414764,-0.3581298427764149,"['Li', 'O', 'P', 'W']"
mp-1176247,Li9Mn2Co5O16,4,True,0.1604945556173601,0.2179427957484411,-0.5646027908192054,False,0.3097788454554275,-0.4153288941892981,"['Co', 'Li', 'Mn', 'O']"
mp-1175919,Li9Mn2Co5O16,4,True,0.1711409771544136,0.2207505599154085,-0.3536195211782704,False,0.2865067206266005,-0.4084793263647017,"['Co', 'Li', 'Mn', 'O']"
mp-1175270,Li7Mn4CoO12,4,True,-0.0764025929184355,0.109944866917903,-0.5787541076853664,False,0.1393989991160922,-0.6091769367697434,"['Co', 'Li', 'Mn', 'O']"
mp-1178142,KLiSnO2,4,False,0.1826379206536509,0.6035655469562236,0.5131317094615304,True,-0.1761794538988094,-0.6970430876443402,"['K', 'Li', 'O', 'Sn']"
mp-1022534,LiMg6Zr,3,False,2.282065939802241,1.4065470295736489,-0.8682128617659177,False,-0.997083787777843,-0.2027802049897936,"['Li', 'Mg', 'Zr']"
mp-1097264,BaSrLi2,3,False,3.514482164634268,1.9267288102156,-0.6341406014486153,False,-2.376627816232648,4.545048783159633,"['Ba', 'Li', 'Sr']"
mp-1205909,Li2VPb2,3,False,2.3844128222411607,0.9880233503125948,-0.8682128617659177,False,2.696426454540004,-0.6474770494285292,"['Li', 'Pb', 'V']"
mp-1232437,Li9Mn2Co5O16,4,True,0.1527433730108325,0.2158985884344168,-0.5317636105317042,False,0.3240467121264092,-0.419472640988318,"['Co', 'Li', 'Mn', 'O']"
mp-753481,LiNiPO4,4,True,-0.3431205386706354,0.0847203967927062,1.3107513873723842,True,0.2838976116129822,-0.5002572651306203,"['Li', 'Ni', 'O', 'P']"
mp-850290,Li2Si6Ni2O15,4,True,-0.8787603406790353,-0.1106542026134753,1.7419941487148487,True,-0.6592804088276958,2.506256710513379,"['Li', 'Ni', 'O', 'Si']"
mp-1174085,Li5Mn(CoO4)2,4,True,0.1340769367214414,0.2583467909192484,-0.8682128617659177,False,0.1796415014444244,-0.8378436667290162,"['Co', 'Li', 'Mn', 'O']"
mp-761629,Li17V16O32,3,False,-0.5172897587404743,-0.0980848822936372,-0.430199135415721,False,0.0918379764845154,0.5441988310466515,"['Li', 'O', 'V']"
mp-766087,LiNiP2O7,4,True,-0.3203450352636826,0.0521788118200287,-0.838488325381974,False,-0.552131802712799,0.332807121584643,"['Li', 'Ni', 'O', 'P']"
mp-777682,Li2NbV3O8,4,False,-0.7441470214020527,-0.331122486015762,0.1436401489895831,True,0.3055637226545846,-0.3545841378736102,"['Li', 'Nb', 'O', 'V']"
mp-26577,LiNiPO4,4,True,-0.3833907928479753,0.0740999853915343,1.4715618063060247,True,-0.373986512184168,0.2097324906402528,"['Li', 'Ni', 'O', 'P']"
mp-767709,Li2Mn3Si3O10,4,True,-0.8355791368523727,-0.2461429502370139,0.6526812982708914,True,-0.2703911308319423,-0.0259898247628528,"['Li', 'Mn', 'O', 'Si']"
mp-768990,Li7NbS6,3,False,0.6578766225501034,0.7113720986801984,0.7317661695612035,True,-1.1049395739859669,1.813105770415904,"['Li', 'Nb', 'S']"
mp-26368,LiMn2(PO4)3,4,True,-0.3574811542580375,-0.1006384036659659,-0.5867438463944904,False,-0.3411302849258409,-0.0492253993096141,"['Li', 'Mn', 'O', 'P']"
mp-1097473,LiMnIr2,3,True,5.152083229507015,0.8122287245106997,-0.4683196684092534,False,-1.8107643503515236,0.8121259231080242,"['Ir', 'Li', 'Mn']"
mp-1094604,LiMg2,2,False,2.14420406682824,1.0669341874431968,-0.8682128617659177,False,-1.5487599151309477,-0.8670111055143045,"['Li', 'Mg']"
mp-1235954,LiCo6(OF5)2,4,True,-0.0824414885191946,0.39087523499938,-0.0150712707916592,False,0.1560271405386528,-0.5369566834503843,"['Co', 'F', 'Li', 'O']"
mp-756836,Li5Cr2Cu5O12,4,False,0.5611434687803175,0.3723479578675078,-0.8682128617659177,False,0.6896724484320776,-0.5878465909946153,"['Cr', 'Cu', 'Li', 'O']"
mp-753751,LiAgF2,3,False,-0.0820312794129143,-0.6585975358070636,-0.3833440575622141,False,0.8117669198902602,-0.9429185724017634,"['Ag', 'F', 'Li']"
mp-754618,LiMnF4,3,True,-1.0198652236355592,0.3642196468503978,0.6283058242430554,True,-0.4889842858048204,-0.3623522778138408,"['F', 'Li', 'Mn']"
mp-857356,LiMnPO4,4,True,-0.7133472503602556,-0.1530966235220011,1.51035943580033,True,-0.61926962894121,0.8919222731297202,"['Li', 'Mn', 'O', 'P']"
mp-771093,Li3Cr10Fe5O24,4,True,-0.2160179649834329,-0.3375681366608717,0.0876442683756383,True,0.4227742287219764,0.0792624999710978,"['Cr', 'Fe', 'Li', 'O']"
mp-1100569,Li9Mn2Co5O16,4,True,0.2024984245624637,0.2290204106716894,-0.8682128617659177,False,0.255661935967284,-0.3992232376435806,"['Co', 'Li', 'Mn', 'O']"
mp-1372845,Li4VFe3O8,4,True,0.202171284916318,0.1102646538449297,-0.4344648433705923,False,0.225074637372337,-0.3599538375180088,"['Fe', 'Li', 'O', 'V']"
mp-754051,LiFeF3,3,True,-0.6600305618745039,0.4292208069640491,-0.860967929207645,False,-0.1481929564945413,-0.9126262240057564,"['F', 'Fe', 'Li']"
mp-1306185,Li2MnCo3O8,4,True,0.4587972120629521,0.1268654113619391,-0.7750443832595226,False,0.4080693782350859,-0.4164085888860486,"['Co', 'Li', 'Mn', 'O']"
mp-1210954,LiSm2RuO6,4,False,-0.940840740156557,-0.1690540647999711,-0.5974419711067066,False,2.137475462224644,-0.5412069047645053,"['Li', 'O', 'Ru', 'Sm']"
mp-1097043,LiFeF3,3,True,-0.7353093956490865,0.4093676374020755,1.0265062763477868,True,-0.379685167878677,-0.8772382716136201,"['F', 'Fe', 'Li']"
mp-1275904,Li3Cr(CoO3)2,4,True,0.0719394515023284,0.1230822189122704,-0.2291691843361517,False,0.4237212736936997,-0.6109767788081355,"['Co', 'Cr', 'Li', 'O']"
mp-18722,Cs2LiMnO4,4,True,0.1013598746778439,0.3802789216735149,0.3627485766397981,True,0.2677885607555634,0.5718714378321123,"['Cs', 'Li', 'Mn', 'O']"
mp-1176956,Li6Ni3Sn(PO4)6,5,True,-0.4013527378705422,0.0978834991339463,-0.8682128617659177,False,-0.383787568621079,0.1298120021941348,"['Li', 'Ni', 'O', 'P', 'Sn']"
mp-766089,LiVSiO4,4,False,-0.875890453723969,-0.1931343402552382,0.9411921172503608,True,-0.6831030299693738,0.8696190248172024,"['Li', 'O', 'Si', 'V']"
mp-11743,LiYGa4,3,False,1.6280779622511314,0.9753174116922628,-0.8682128617659177,False,1.2550101059786587,-0.9187682214405752,"['Ga', 'Li', 'Y']"
mp-1175785,Li9Mn2Co5O16,4,True,0.1411675289795664,0.2128457091209055,-0.153402085899629,False,0.3404726976871639,-0.4241917748155579,"['Co', 'Li', 'Mn', 'O']"
mp-1399250,Li3Co2Cu3O10,4,True,3.0449376583648986,1.023701775611202,-0.8682128617659177,False,0.5772472490341841,-0.7295311276764461,"['Co', 'Cu', 'Li', 'O']"
mp-768207,Li2SbPCO7,5,False,-0.2912113728432881,0.0782710856075467,1.368913976788805,True,-0.4668924843089209,-0.3250865978312244,"['C', 'Li', 'O', 'P', 'Sb']"
mp-774749,RbNa3Li12Ti4O16,5,False,-0.7364613689418996,0.2269598943930861,2.1262464129036527,True,-0.6318497617574848,-0.0672254753934329,"['Li', 'Na', 'O', 'Rb', 'Ti']"
mp-757819,LiNiPO4,4,True,-0.3182931583661572,0.0912680831243033,1.427821372356075,True,-0.2830413918795502,1.5393090907186393,"['Li', 'Ni', 'O', 'P']"
mp-27705,Li2Si,2,False,1.963303802564355,1.162573044279092,-0.8682128617659177,False,-1.5787148709863807,-0.948735649162381,"['Li', 'Si']"
mp-752855,LiTiFeO4,4,True,-0.6264803337311168,-0.2043003442780272,0.2578663286700262,True,0.0456795438857889,-0.3609086624609853,"['Fe', 'Li', 'O', 'Ti']"
mp-752510,Li3Ti2V3O10,4,False,-0.9109687915102014,-0.2852012838621361,0.2341002414928862,True,-0.0176087453502901,-0.1324171643738337,"['Li', 'O', 'Ti', 'V']"
mp-1035145,LiMg14CoO16,4,True,-0.9536799791702272,0.2804634655000131,0.4028326894855721,True,-0.098104700221243,-0.3571168682597969,"['Co', 'Li', 'Mg', 'O']"
mp-760419,Li2BiF5,3,False,-0.9594389830704632,-1.5760687437265917,1.8805280927730503,True,0.3231554645974694,-0.8781197428927725,"['Bi', 'F', 'Li']"
mp-778325,Li2TiV3O8,4,False,-0.8070434059640947,-0.3019949556113859,0.0230492622018731,True,0.0993017405842108,-0.3955029682788125,"['Li', 'O', 'Ti', 'V']"
mp-1100529,Li9Mn7O16,3,True,-0.1747932816413653,0.0375502010868012,-0.8682128617659177,False,0.1115481977777426,-0.3775427724396215,"['Li', 'Mn', 'O']"
mp-504103,Li(WO2)2,3,False,0.1834858128551436,-0.3865644251728823,-0.8682128617659177,False,2.82168482016577,-0.7102281771183463,"['Li', 'O', 'W']"
mp-1192210,LiDySn,3,False,1.4610224485023056,0.9049852234669824,-0.8652336371625157,False,2.079648126407595,0.3734566671384071,"['Dy', 'Li', 'Sn']"
mp-769962,Li4TiFe3O8,4,True,-0.2993028857097663,-0.0004373805393347,-0.4077872412401281,False,0.2009553492136001,-0.7987830966773796,"['Fe', 'Li', 'O', 'Ti']"
mp-758046,Li4Mn3Co3(NiO8)2,5,True,0.4324619534408213,0.1269453725158012,-0.259503107570792,False,0.5126561474806799,-0.4496005786029547,"['Co', 'Li', 'Mn', 'Ni', 'O']"
mp-776663,Li4Ti2V3Fe3O16,5,True,-0.5394022853629101,-0.2123263924299927,-0.2922068685581386,False,0.1398302157052026,-0.3905798065236459,"['Fe', 'Li', 'O', 'Ti', 'V']"
mp-780316,LiCo2OF5,4,True,-0.2164906191172076,0.4921604921373403,-0.2712168770341687,False,0.2097504323938994,-0.125243286277207,"['Co', 'F', 'Li', 'O']"
mp-1175066,Li7Mn2(CoO4)3,4,True,0.1611203495984855,0.2216358388827813,-0.8682128617659177,False,0.1664438757637383,-0.6059540635192312,"['Co', 'Li', 'Mn', 'O']"
mp-604459,Li2B4H4O9,4,False,-0.3761277523891348,0.0858260907664221,2.6154486347123043,True,-1.1897652148024194,2.752574832057428,"['B', 'H', 'Li', 'O']"
mp-775011,Li2NbFe3O8,4,True,-0.2296051717709035,-0.1572551908126629,0.3520504519275812,True,0.4031826746340538,-0.3517918457721529,"['Fe', 'Li', 'Nb', 'O']"
mp-758671,LiMn(PO3)3,4,True,-0.7179499161502987,-0.1396475862597712,2.0418801889073093,True,-0.5327917686526311,0.7019324920570076,"['Li', 'Mn', 'O', 'P']"
mp-1100478,Li9Mn2Co5O16,4,True,0.2161962109480975,0.2326329065367555,-0.8682128617659177,False,0.2493574274300923,-0.3973058639303379,"['Co', 'Li', 'Mn', 'O']"
mp-1078879,LiPrSn2,3,False,1.540682303231216,0.8770765258558979,-0.8682128617659177,False,1.791046553315894,-0.6633008969050698,"['Li', 'Pr', 'Sn']"
mp-27063,Li2CuPO4,4,False,-0.349494948387352,0.2452132770939782,0.216224893872473,True,-0.247529246604642,-0.7490496729462504,"['Cu', 'Li', 'O', 'P']"
mp-768634,Li3Cr4O8,3,False,-0.3760280898950529,-0.1837450021522903,-0.3614061309371624,False,0.1695967860618819,-0.3835222378917596,"['Cr', 'Li', 'O']"
mp-631319,LiTiRe,3,False,3.2853075550907915,-4.145873052373567,-0.8682128617659177,False,2.5400400757978807,-1.0850159247867126,"['Li', 'Re', 'Ti']"
mp-1096310,LiY2Zn,3,False,4.559571518251195,-1.025199725848808,-0.8682128617659177,False,-2.287183314572135,2.3780472705324978,"['Li', 'Y', 'Zn']"
mp-1175557,Li9Mn2Co5O16,4,True,0.1532505890261723,0.2160323557240011,-0.4933722389378625,False,0.3366626757323461,-0.423102020171147,"['Co', 'Li', 'Mn', 'O']"
mp-1571056,Li2Mn2FeO6,4,True,0.0262387390608996,-0.0448530151085407,-0.0549522546872019,False,0.081092436710662,-0.555467213085403,"['Fe', 'Li', 'Mn', 'O']"
mp-1021272,LiMg6Sb,3,False,2.0638154694639423,1.5092475479534642,-0.8682128617659177,False,-0.8224857424337388,-0.1937978091477786,"['Li', 'Mg', 'Sb']"
mp-1222617,Li2ZnCu3,3,False,2.032190515430665,1.234471807310736,-0.8682128617659177,False,1.118805925464896,-0.9994581680788528,"['Cu', 'Li', 'Zn']"
mp-1185330,LiEr2Au,3,False,1.6266384624064285,-6.7963467185795,-0.8682128617659177,False,4.01172526615947,-0.9732587407855972,"['Au', 'Er', 'Li']"
mp-770674,Li9V12Fe7O48,4,True,-0.1283157590571444,-0.1099079408911428,-0.8682128617659177,False,-0.2599938018631851,1.375890156208547,"['Fe', 'Li', 'O', 'V']"
mp-1238856,Li(CrS2)2,3,False,1.1843534918472964,0.2856127436048595,-0.8682128617659177,False,-0.6459221700602046,0.4092385583059219,"['Cr', 'Li', 'S']"
mp-757259,LiMnPO4,4,True,-0.6608013175576316,-0.1392387665200402,1.568048057666208,True,-0.582535235692078,1.896036326812795,"['Li', 'Mn', 'O', 'P']"
mp-1095765,SrLi2Tl,3,False,3.290978917169853,-2.89565036019346,-0.8682128617659177,False,-2.280454766402733,3.053441391258054,"['Li', 'Sr', 'Tl']"
mp-1177320,Li4V3P8O29,4,False,-0.6562287988329714,-0.0962734820620218,-0.2632271383250447,False,-0.8121709169376036,2.1358738167331315,"['Li', 'O', 'P', 'V']"
mp-1175413,Li9Co7O16,3,True,0.2957990904205551,0.2904135121957983,-0.8636763152107378,False,0.4147415505288034,-0.4361001127989969,"['Co', 'Li', 'O']"
mp-1101512,LiFeP2O7,4,True,-0.5919070866901379,-0.0903910546216075,0.8965714578494055,True,-0.5519508726126671,0.3139861242751527,"['Fe', 'Li', 'O', 'P']"
mp-759068,LiSnP2O7,4,False,-0.5308437235872887,0.0433666047661426,-0.8682128617659177,False,-0.101526989821896,-0.4397390748782764,"['Li', 'O', 'P', 'Sn']"
mp-753824,Li4CrF6,3,False,-1.1607388273624542,0.4737179988634569,1.1747904100171225,True,-0.640704209239626,-0.5728066457611821,"['Cr', 'F', 'Li']"
mp-851105,Li2Cu2(SO4)3,4,False,0.2296869496763639,0.3195210395148086,-0.8682128617659177,False,-0.4054417334182849,3.9975838623456457,"['Cu', 'Li', 'O', 'S']"
mp-1222627,Li2ZnGe3,3,False,1.946824769611777,1.135965703723746,-0.8682128617659177,False,0.6271397562405984,-0.9341321113843346,"['Ge', 'Li', 'Zn']"
mp-1211688,KLiHo2(MoO4)4,5,False,-0.6085917289454877,-0.2512369538045673,1.3161004497284934,True,0.9161161341542684,0.664368914444476,"['Ho', 'K', 'Li', 'Mo', 'O']"
mp-775946,Li2MnVP2(O4F)2,6,True,-0.8363619311242456,-0.0655699472412935,-0.637458374302404,False,-0.4050231514450769,0.3522543068262004,"['F', 'Li', 'Mn', 'O', 'P', 'V']"
mp-770360,Li2AlVO4,4,False,-0.7977027035475102,0.0067854263794099,0.7565479014895035,True,-0.6191510063768012,-0.1802943787580909,"['Al', 'Li', 'O', 'V']"
mp-758508,LiFe(CO3)2,4,True,0.1510443652863941,-0.1194717115172125,0.12982738037381,True,-1.065706936346741,0.3870295130538793,"['C', 'Fe', 'Li', 'O']"
mp-1209550,RbLiMoHO4,5,False,0.3781326982199248,0.2993709679145085,0.932999249591004,True,-0.5493958148109742,2.0797965276559847,"['H', 'Li', 'Mo', 'O', 'Rb']"
mp-1096394,LiMgPt2,3,False,3.802078072392647,1.4039717480709812,-0.8598845748064078,False,-1.9404443103711155,1.1392093535096233,"['Li', 'Mg', 'Pt']"
mp-1176900,Li6V3P8O29,4,False,-0.7364876402371002,-0.0779577398188541,-0.82643600766821,False,-0.7784654718295623,2.121628243694138,"['Li', 'O', 'P', 'V']"
mp-818167,LiMnPO4F,5,True,5.940853251610181,1.7203580051713403,-0.8682128617659177,False,-0.36730193192297,-0.7113652227216097,"['F', 'Li', 'Mn', 'O', 'P']"
mp-31096,Li3AlH6,3,False,1.7805748621590085,1.00376792040373,1.5645271558621885,True,-1.812354209322797,-0.7422474450974966,"['Al', 'H', 'Li']"
mp-759884,LiMnVP2(HO5)2,6,True,-0.3907809503298433,-0.0535432121469774,-0.2476539188072613,False,-0.4400999176724942,-0.193778398354224,"['H', 'Li', 'Mn', 'O', 'P', 'V']"
mp-772430,Li2AlFeO4,4,True,-0.5514194143257495,0.0940019865251271,0.6049459949663792,True,-0.3455641723492237,-0.2849798750370134,"['Al', 'Fe', 'Li', 'O']"
mp-1303127,Li3Fe2(SiO4)2,4,True,-0.5954725002597542,-0.0322963677742492,0.36775909074552,True,-0.5625774027151147,-0.194315013343636,"['Fe', 'Li', 'O', 'Si']"
mp-756441,Li2FePCO7,5,True,-0.171288130735373,0.0049368802167265,0.5493563722528978,True,-0.6826564561107513,-0.4487764966809549,"['C', 'Fe', 'Li', 'O', 'P']"
mp-1211000,LiSm(WO4)2,4,False,-0.7333727219320746,-0.3986240355155879,1.6760449495395378,True,2.132776822191854,-0.3355879572312622,"['Li', 'O', 'Sm', 'W']"
mp-721067,LiCaP3H8O13,5,False,-0.1680873263408815,0.2485116594520736,2.7612952209788566,True,-1.080109932320983,0.3602542336001605,"['Ca', 'H', 'Li', 'O', 'P']"
mp-1178088,Li12Cr3NiP4(CO7)4,6,True,-0.4276995720019277,0.0044255419418681,0.7419903267228786,True,-0.6733682840685902,0.3659268498286733,"['C', 'Cr', 'Li', 'Ni', 'O', 'P']"
mp-776502,LiTi2(PO4)3,4,False,-1.1355306833804748,-0.265001229278309,0.9411921172503608,True,-0.6471916950464451,0.0974758725530419,"['Li', 'O', 'P', 'Ti']"
mp-770199,Li2CoSn3(PO4)6,5,True,-0.4594606422961751,0.0133972660827646,-0.8682128617659177,False,-0.1516692879440856,0.1210086791306197,"['Co', 'Li', 'O', 'P', 'Sn']"
mp-1979079,Li4CrTe2WO12,5,False,0.0345713177457816,0.1564835367282986,-0.8130294969529003,False,1.1792736968753348,-0.001687045623794,"['Cr', 'Li', 'O', 'Te', 'W']"
mp-859109,Li3Fe(PO4)2,4,True,-0.5925966746343105,0.0434092905203561,0.6844371241571554,True,-0.5694241544081176,0.0847024328934597,"['Fe', 'Li', 'O', 'P']"
mp-768657,Li4CrFe3O8,4,True,-0.0911015049375507,0.0225993398234364,0.3539463221297463,True,0.2508878161571822,-0.8019324403831427,"['Cr', 'Fe', 'Li', 'O']"
mp-1211048,Li2Pr5Sn7,3,False,1.4108740508934654,0.7531075622514087,-0.8682128617659177,False,1.932504946093255,3.238198320700962,"['Li', 'Pr', 'Sn']"
mp-1175125,Li7Mn4CoO12,4,True,-0.106836035394846,0.1019187025428284,-0.4631060253532996,False,0.1549247200271947,0.0124642076208379,"['Co', 'Li', 'Mn', 'O']"
mp-757767,Li4MnP2O9,4,True,-0.5855539189234009,0.0757562017419827,-0.8682128617659177,False,-0.6805519686511218,2.8130880839118864,"['Li', 'Mn', 'O', 'P']"
mp-770901,LiFeCSO7,5,True,0.0865091922830542,0.0216323470478356,0.4206403274559086,True,-0.8810982766474454,-0.3756126931411914,"['C', 'Fe', 'Li', 'O', 'S']"
mp-772670,Na5LiFe2P2(CO7)2,6,True,-0.3372617355408456,0.0647191939789614,1.7062434534740234,True,-0.5545020552279589,0.5460601644029937,"['C', 'Fe', 'Li', 'Na', 'O', 'P']"
mp-36125,Li2MnBr4,3,True,0.5247644237914745,0.8677356076111772,0.2286834694867004,True,0.0683366560137325,-0.7546747034116056,"['Br', 'Li', 'Mn']"
mp-1236211,LiEr6Ta2O14,4,False,-1.8301279110322248,-0.4869896872633594,-0.6342083110986926,False,3.427901386709224,-0.3755422521136812,"['Er', 'Li', 'O', 'Ta']"
mp-776460,Li4Fe(WO4)3,4,True,-0.2595498081773867,-0.1886967257537113,0.1846721969364403,True,1.7871256999310503,-0.620523691993086,"['Fe', 'Li', 'O', 'W']"
mp-769725,Li4Ti3Cr3(CoO8)2,5,True,-0.523285467498467,-0.1921145579344192,-0.5042734926003114,False,0.1722961037018808,-0.3992122463081884,"['Co', 'Cr', 'Li', 'O', 'Ti']"
mp-761000,Li3V3P8O29,4,False,-0.6009491359578832,-0.1028130923044873,-0.1924028443441657,False,-0.8412085716429797,2.16791360656526,"['Li', 'O', 'P', 'V']"
mp-721238,Li10Sn(PO6)2,4,False,-0.5207134411843098,0.3185355256837651,1.3476531466645247,True,-0.7713619002629988,0.3940318647012515,"['Li', 'O', 'P', 'Sn']"
mp-8315,LiSmAlF6,4,False,-1.7917348896304588,-0.7909760692801013,-0.8682128617659177,False,0.3300546356383729,-0.5640915056583484,"['Al', 'F', 'Li', 'Sm']"
mp-1175790,Li9Mn2Co5O16,4,True,0.150813156537606,0.2153895354508245,-0.3057487985736036,False,0.3321364063924764,-0.4218036037219477,"['Co', 'Li', 'Mn', 'O']"
mp-1095772,Li2TlIn,3,False,3.2164951091957104,-3.454455498948509,-0.8231859444644986,False,-2.1870872984374388,2.0800933643213497,"['In', 'Li', 'Tl']"
mp-766707,Li3CoPCO7,5,True,-0.3255350553106676,0.0659950664694009,0.6616866817311753,True,-0.5445025667787916,0.2950847464050781,"['C', 'Co', 'Li', 'O', 'P']"
mp-704942,Li2Cr(PO3)5,4,False,-0.7017624707134377,-0.0941273332699852,1.082366737661577,True,-0.8803869615992591,0.5768661446028744,"['Cr', 'Li', 'O', 'P']"