material_id,formula_pretty,n_elements,contains_transition_metal,formation_energy_per_atom,energy_per_atom,band_gap,is_semiconductor,density,volume,elements
mp-1378312,Li4Ti2V3Cu3O16,5,False,2.6155191721615028,0.7555926994040714,-0.8682128617659177,False,0.2099061713111719,-0.3851654098713085,"['Cu', 'Li', 'O', 'Ti', 'V']"
mp-728431,Li2Cr2O9,3,False,0.9970496457054026,0.2916967167229289,-0.4008131472821633,False,-1.0961578739281783,-0.0490178523904258,"['Cr', 'Li', 'O']"
mp-766543,Li7Ti11O24,3,False,-1.3450751173334488,-0.3286433171300382,-0.8682128617659177,False,-0.0850318952277104,0.0311539856815227,"['Li', 'O', 'Ti']"
mp-1176818,LiBi(PO3)4,4,False,-0.5895099190067316,-0.0164586170732427,2.487138847815779,True,-0.4074839301608035,0.3854324404889321,"['Bi', 'Li', 'O', 'P']"
mp-831250,Li3V3P8O29,4,False,-0.5988266461222397,-0.1022533313665482,-0.3830732189619049,False,-0.8284017336224828,2.141959756058875,"['Li', 'O', 'P', 'V']"
mp-776740,Li2MnWO6,4,True,-0.1891191762593563,-0.1250895049246131,-0.1046511378439564,False,1.3621610089302445,-0.6602954272283804,"['Li', 'Mn', 'O', 'W']"
mp-2286,Li2Se,2,False,0.5746074345038874,-0.1555247834416159,1.1458783894341056,True,-0.5545378663889531,-1.0857662663027323,"['Li', 'Se']"
mp-560189,NaLi2BO3,4,False,-0.5425250694891213,0.2896806740717869,1.940315713791326,True,-1.007456274241268,0.3971202092110264,"['B', 'Li', 'Na', 'O']"
mp-755271,LiNiBO3,4,True,-0.2663787157561491,0.0558548346528458,1.188874017233205,True,-0.1135658083120875,-0.2382335573840553,"['B', 'Li', 'Ni', 'O']"
mp-769868,Li3BiH8O7,4,False,0.4952570055209624,0.5788121309569849,1.8736894181152408,True,-0.1615619720190189,-0.2819312251341335,"['Bi', 'H', 'Li', 'O']"
mp-1402218,Li5Ni3O5F3,4,True,0.2716733308418907,0.5701076113585675,-0.8682128617659177,False,0.176034214854292,-0.8226430188819926,"['F', 'Li', 'Ni', 'O']"
mp-1222505,Li8PSe6,3,False,0.9608091802001728,-0.4122991530340682,-0.8682128617659177,False,-0.4519333516615221,-0.3644477109218591,"['Li', 'P', 'Se']"
mp-1641408,Li7Mn4CoO12,4,True,-0.0928360837204386,0.1059143210186575,-0.444485871582036,False,0.1094786002414269,-0.6019902064007563,"['Co', 'Li', 'Mn', 'O']"
mp-754753,Li3Mn(PO4)2,4,True,-0.6888017327816583,0.0036958219449789,-0.6760528748464784,False,-0.4747306598322501,0.4378332089651296,"['Li', 'Mn', 'O', 'P']"
mp-1176852,Li7V3P8O29,4,False,-0.7852992481284304,-0.0723496812121152,-0.7885186036249103,False,-0.7906051356811612,2.171276596511587,"['Li', 'O', 'P', 'V']"
mp-1272771,LiFeOF,4,True,-0.3008393405148124,0.2088236013786338,0.289554444906213,True,0.1867447976253333,-1.0054236201208049,"['F', 'Fe', 'Li', 'O']"
mp-758364,LiP4WO12,4,False,-0.5845866130691388,-0.1613316578881327,1.8054380908373,True,-0.4686543224417875,0.3550523492495348,"['Li', 'O', 'P', 'W']"
mp-1177039,Li6MnV3(PO4)6,5,True,-0.740656661148271,-0.1008683783609505,-0.6413855340068894,False,-0.6245057511435761,1.550943191501783,"['Li', 'Mn', 'O', 'P', 'V']"
mp-767223,LiVCrP2(O4F)2,6,False,-0.826631216713312,-0.1278273153346423,-0.0875205963743944,False,-0.3942649923970743,-0.2132572129265757,"['Cr', 'F', 'Li', 'O', 'P', 'V']"
mp-1236377,Ba3LiTi3O8,4,False,-1.1725223121781112,-0.1426004603983836,-0.8682128617659177,False,1.0749846849764932,-0.6200766194415255,"['Ba', 'Li', 'O', 'Ti']"
mp-1376775,LiFeOF2,4,True,0.6152791463308807,0.5894883854560693,-0.8173629145578495,False,-0.103242619235612,-0.6152630060909411,"['F', 'Fe', 'Li', 'O']"
mp-1175912,Li9Mn2Co5O16,4,True,0.1867390377031638,0.2248642121252654,-0.8682128617659177,False,0.2558990660897792,-0.3992951847875183,"['Co', 'Li', 'Mn', 'O']"
mp-1175014,Li7Mn2(CoO4)3,4,True,0.1664333345214012,0.2230370241199321,-0.8682128617659177,False,0.184067623798131,-0.6100910508124783,"['Co', 'Li', 'Mn', 'O']"
mp-1344789,LiAlSi3O8,4,False,3.692873002003246,1.139733289657734,-0.8682128617659177,False,-0.7894466990776356,-0.3196626828671656,"['Al', 'Li', 'O', 'Si']"
mp-32017,Li3Mn3(PO4)4,4,True,-0.5782155786975673,-0.1095830347482359,-0.4498349339381451,False,-0.4066451154147803,0.4876684080560245,"['Li', 'Mn', 'O', 'P']"
mp-776153,LiFeF5,3,True,-0.4288985502013437,0.5987955399194832,-0.0291548780077421,False,-0.8665387121920464,-0.0055387361293735,"['F', 'Fe', 'Li']"
mp-757689,Li7V3P8O29,4,False,-0.7746280098998559,-0.0695353721777527,-0.8661138626135214,False,-0.7448905005353244,2.082931292417566,"['Li', 'O', 'P', 'V']"
mp-778120,Li5Mn4(Si3O10)2,4,True,-0.8068545077292139,-0.1471882346771465,-0.8682128617659177,False,-0.5658311585875863,-0.0116340656366283,"['Li', 'Mn', 'O', 'Si']"
mp-752938,LiMnF3,3,True,-1.1418501850366312,0.261995184642629,1.328220477092334,True,-0.3865905800210553,-0.8788057067788423,"['F', 'Li', 'Mn']"
mp-26740,LiCr2(PO4)3,4,False,-0.4664460006198324,-0.145205733442392,-0.8682128617659177,False,-0.2519979212717864,1.012346895315558,"['Cr', 'Li', 'O', 'P']"
mp-770383,Li2Cr2(SO4)3,4,False,-0.1206214434653173,0.0575101685819991,0.7232347536514604,True,-0.6335194530939364,0.1509330536009764,"['Cr', 'Li', 'O', 'S']"
mp-778679,Li5Mn8(BO3)8,4,True,-0.5159876286650655,-0.2416694171776748,-0.8682128617659177,False,-0.4141651715123138,0.2084798656044589,"['B', 'Li', 'Mn', 'O']"
mp-768562,LiFePCO7,5,True,-0.1024039506522699,-0.0618759257545423,-0.8682128617659177,False,-0.7835259588411183,0.3812655597238952,"['C', 'Fe', 'Li', 'O', 'P']"
mp-753791,LiVSiO4,4,False,-0.8916484661496192,-0.1972901763244173,0.9592705938210058,True,-0.7107627617915961,-0.1680557145318295,"['Li', 'O', 'Si', 'V']"
mp-1113732,Rb2LiGaF6,4,False,-1.2126119523405476,0.6856281733613274,3.1818398576091043,True,0.2679864315847551,-0.8204446368267794,"['F', 'Ga', 'Li', 'Rb']"
mp-1094586,Li2Mg,2,False,2.1451419787433554,1.23958696868268,-0.8682128617659177,False,-1.818233172818983,-0.8835090977220719,"['Li', 'Mg']"
mp-849364,Li2Mn2P2(H4O5)3,5,True,0.2138107931834773,0.2944527784287961,-0.0173056892442109,False,-1.0491641140100392,0.6858482772647078,"['H', 'Li', 'Mn', 'O', 'P']"
mp-1235068,Ba3Li(AsO4)2,4,False,-0.504757545280525,0.2328221632196543,-0.8682128617659177,False,0.8806595761200184,-0.5787368226134508,"['As', 'Ba', 'Li', 'O']"
mp-759348,Li3Cr(Si2O5)3,4,False,-1.129057066517403,-0.176684263154409,1.6954099094616513,True,-0.7701532803366199,2.313675759453914,"['Cr', 'Li', 'O', 'Si']"
mp-757781,LiSi2(BiO3)3,4,False,-0.4224078173504099,0.0934230473950302,1.2604431173649346,True,1.699691567427062,1.30479224796182,"['Bi', 'Li', 'O', 'Si']"
mp-585261,LiMo4(P2O11)2,4,False,-0.3587166233354407,-0.20134697107207,-0.719319341245887,False,-0.2686422378968939,0.002688857576843,"['Li', 'Mo', 'O', 'P']"
mp-762856,Li2Fe(PO4)2,4,True,-0.4371493304120094,0.0240058455351584,-0.8586658011050153,False,-0.5728027696912598,-0.3777089831941177,"['Fe', 'Li', 'O', 'P']"
mp-1174907,Li7Mn2(CoO4)3,4,True,0.1245092976405959,0.2119804631826386,-0.8682128617659177,False,0.2686522935389875,-0.629215819985794,"['Co', 'Li', 'Mn', 'O']"
mp-1111670,K2LiMnF6,4,True,-1.0981839862670424,0.5290789701977517,-0.8682128617659177,False,-0.4156093156918473,-0.8488197933977615,"['F', 'K', 'Li', 'Mn']"
mp-753501,Li4MnO2F3,4,True,-0.7794239968714007,0.3920991750775288,0.8766648207266728,True,-0.4412428588491858,-0.1726788713959386,"['F', 'Li', 'Mn', 'O']"
mp-770477,Li2CuAsCO7,5,False,0.2476514979369677,0.2391267694576229,-0.8221025900632621,False,-0.4086821041066599,-0.393969394269768,"['As', 'C', 'Cu', 'Li', 'O']"
mp-758633,LiFe2C2O7,4,True,0.232635379468897,-0.1393766166439548,0.1715365248214405,True,-0.8527256784422674,0.7346509689371121,"['C', 'Fe', 'Li', 'O']"
mp-1174032,Li5Mn(CoO4)2,4,True,0.1483456083466697,0.262109845459227,-0.6723965537423022,False,0.1174974706568953,-0.8283726717058087,"['Co', 'Li', 'Mn', 'O']"
mp-849620,LiFe4(BO3)4,4,True,-0.2843790336858861,-0.2202347535743054,0.2940909914613935,True,-0.3826112724759797,0.1665462496700836,"['B', 'Fe', 'Li', 'O']"
mp-1096439,LiZn2Ru,3,False,4.13092837728079,1.6342383433829375,-0.836795584130041,False,-2.185397785837649,1.1286953956839196,"['Li', 'Ru', 'Zn']"
mp-1222289,LiTb(WO4)2,4,False,-0.683389988392569,-0.3834903801795454,1.8958304736905256,True,2.2680534937466272,-0.7938956755967741,"['Li', 'O', 'Tb', 'W']"
mp-584742,Li3Co2(PO4)3,4,True,-0.3327114093445275,0.0638779468001493,-0.1102033291502968,False,-0.3908587798730337,1.3280227087751977,"['Co', 'Li', 'O', 'P']"
mp-1307472,Li3CrO4,3,False,-0.1509428749658346,0.2233250673586962,-0.1808244941809436,False,-0.3297377405370365,-0.8353567151730231,"['Cr', 'Li', 'O']"
mp-774784,Li4Mn3Co2Sn3O16,5,True,0.0415409145997004,0.0929136017717962,-0.8682128617659177,False,0.7590700098575814,-0.3325526009003178,"['Co', 'Li', 'Mn', 'O', 'Sn']"
mp-756399,Li4Mn3Nb2Cr3O16,5,True,-0.5437419687305839,-0.2983912105718679,-0.3794168978577294,False,0.3913255449916733,-0.3639492253264648,"['Cr', 'Li', 'Mn', 'Nb', 'O']"
mp-756604,Li2FeP2O7,4,True,-0.5769615499027414,-0.009851698897716,1.76623420344253,True,-0.7737218877455232,0.5636634795041513,"['Fe', 'Li', 'O', 'P']"
mp-760796,Li7CrFe3(PO4)6,5,True,-0.5895070749310833,-0.0297302948515073,-0.1181253582093434,False,-0.5844443728123374,0.1585553442801367,"['Cr', 'Fe', 'Li', 'O', 'P']"
mp-1282931,Li5V2Ni3O10,4,True,-0.0822079158128216,0.1456559035971991,0.0307681623106879,True,0.385401381356008,-0.1904191668901204,"['Li', 'Ni', 'O', 'V']"
mp-777842,Li32Mn3Cr13O48,4,True,-0.2746866665974867,0.1015200902818303,-0.3010091230681911,False,-0.1060932535607971,1.2060630423596683,"['Cr', 'Li', 'Mn', 'O']"
mp-753230,LiFe(CO3)2,4,True,0.1521182431047568,-0.1191884993930629,0.6880934452613301,True,-0.8512469090906623,-0.53067576231956,"['C', 'Fe', 'Li', 'O']"
mp-1035346,LiMg14BO16,4,False,-0.9909680409955476,0.2747462382580497,2.97282016782041,True,-0.2718006655114164,-0.3577192346093695,"['B', 'Li', 'Mg', 'O']"
mp-780110,LiVP2HO8,5,False,-0.559318024870426,-0.0550863764789109,0.1128322582044022,True,-0.5362351978774439,0.3803496751658198,"['H', 'Li', 'O', 'P', 'V']"
mp-2646995,Li3PS4,3,False,0.8802424274984036,0.7664201515452463,1.1345708778711927,True,-1.2563323706072196,-0.7770664520621368,"['Li', 'P', 'S']"
mp-1519180,LiEuYFeO6,5,True,-0.5119471553063994,-0.246153230311366,-0.8682128617659177,False,1.6399300727671486,-0.9291349913792412,"['Eu', 'Fe', 'Li', 'O', 'Y']"
mp-1223479,Li24(I2N)5,3,False,1.2156192247065496,1.0949528771338328,-0.4519339330905415,False,-0.5165287396283963,1.185976794709107,"['I', 'Li', 'N']"
mp-766040,Li4V2SiO8,4,False,-0.6746285681442415,-0.0089027964201926,0.3991086587313194,True,-0.770245265962482,0.8704311954477086,"['Li', 'O', 'Si', 'V']"
mp-762111,Li2CuPO4,4,False,-0.319251696474126,0.2531892828081035,0.534934216786428,True,-0.2737662408060548,-0.4958887981723117,"['Cu', 'Li', 'O', 'P']"
mp-768429,LiMnB2O5,4,True,-0.5896146350818621,-0.2019013484114787,0.1716042344715178,True,-0.5007994990890752,0.8512209039207005,"['B', 'Li', 'Mn', 'O']"
mp-779753,LiV4OF11,4,False,-1.2634881520963046,0.1090368863244794,0.035507837816099,True,-0.3057878426445868,0.0305893477827616,"['F', 'Li', 'O', 'V']"
mp-774182,Li3Cr(PO4)2,4,False,-0.7170114363728738,-0.0139204367607726,0.9972557075143832,True,-0.5930088973541625,0.0816527404074337,"['Cr', 'Li', 'O', 'P']"
mp-1177797,Li2VF6,3,False,-1.2637288973787348,0.4193388448843239,0.304721406523533,True,-0.694055831574595,1.2902483757984151,"['F', 'Li', 'V']"
mp-1174973,Li7Mn2(CoO4)3,4,True,0.0855421756485235,0.2017037248026673,-0.245216371404477,False,0.2188131187534718,-0.6180906088555185,"['Co', 'Li', 'Mn', 'O']"
mp-756865,LiCrPO4,4,False,-0.6328393256680309,-0.1522175090036543,0.8443673176397897,True,-0.2627663001538483,-0.3589445159115896,"['Cr', 'Li', 'O', 'P']"
mp-2646976,Li3Bi,2,False,1.4928910688905652,-2.830473941309416,-0.595275262304233,False,0.4778909265335722,-0.7445267985799332,"['Bi', 'Li']"
mp-1198026,Li5Mo15S19,3,False,1.0326276753332926,-0.0552173402127124,-0.8682128617659177,False,0.6330468991075946,3.0153226260204438,"['Li', 'Mo', 'S']"
mp-758568,LiMn2(CO4)2,4,True,0.1144424151986234,-0.1780640837190018,-0.5467274431987931,False,-0.3351417940075714,0.3486946951111289,"['C', 'Li', 'Mn', 'O']"
mp-709186,K4LiH3(SO4)4,5,False,-0.0746832897232703,0.3549374479332406,2.784113373054914,True,-1.0175155843683814,3.498766472721385,"['H', 'K', 'Li', 'O', 'S']"
mp-1175426,Li9Mn2Co5O16,4,True,0.2218932818386824,0.2341353861678304,0.1385619252337839,True,0.35135043805058,-0.427287085164817,"['Co', 'Li', 'Mn', 'O']"
mp-557816,Ba5Li2(WO5)3,4,False,-0.8867707795534565,-0.1633346791282899,0.6833537697559178,True,2.0873984735343107,0.8445319941143241,"['Ba', 'Li', 'O', 'W']"
mp-1040140,LiLaMg30O32,4,False,-1.13206658164115,0.2695902242407873,1.9959053365048065,True,-0.09793892989317,0.6072276328226773,"['La', 'Li', 'Mg', 'O']"
mp-1175303,Li7Mn4CoO12,4,True,-0.0370451694250154,0.120324538904813,-0.8682128617659177,False,0.0919047630276774,-0.5976919808421096,"['Co', 'Li', 'Mn', 'O']"
mp-12719,LiNdSn,3,False,1.6238771474303364,0.9334493202738864,-0.8682128617659177,False,1.40482233344987,-1.016930372625567,"['Li', 'Nd', 'Sn']"
mp-776429,LiV4O5F7,4,False,-0.8966138673246131,-0.0013465938049019,-0.4285741038138653,False,-0.2475809817668003,-0.6371240538894004,"['F', 'Li', 'O', 'V']"
mp-1235421,LiFe8(O7F)2,4,True,0.4941892558032022,0.0121317420438015,-0.8682128617659177,False,0.4783876287997723,-0.4696192316793012,"['F', 'Fe', 'Li', 'O']"
mp-781754,Li3Mn2(P2O7)2,4,True,-0.7065722539749169,-0.0981266216844985,-0.8682128617659177,False,-0.6200280682991823,-0.425407387087858,"['Li', 'Mn', 'O', 'P']"
mp-757030,LiCrPO4,4,False,-0.6014582471759056,-0.1439414260583829,0.7711731859062049,True,-0.3608581898474871,0.6005513492569279,"['Cr', 'Li', 'O', 'P']"
mp-773469,Li4Mn5Te3O16,4,True,0.0972101786152358,0.0924826330109545,-0.8682128617659177,False,0.5485429086238731,-0.2506014044938499,"['Li', 'Mn', 'O', 'Te']"
mp-1176073,Li9Mn2Co5O16,4,True,0.1868579151137713,0.2248955634795778,-0.8682128617659177,False,0.2479660190244543,-0.3968815173316898,"['Co', 'Li', 'Mn', 'O']"
mp-1284127,Li2MnNiO4,4,True,0.125562845286823,0.173653543849851,-0.8682128617659177,False,0.4890813961873691,-0.8283149661712775,"['Li', 'Mn', 'Ni', 'O']"
mp-754805,Li5Fe3(SbO5)2,4,True,0.0809643944872697,0.2153849256765118,-0.8682128617659177,False,0.6725417672247412,-0.6273654951437454,"['Fe', 'Li', 'O', 'Sb']"
mp-1235033,LiBi2As2(PbO5)2,5,False,0.3302908029168322,0.3298552775485062,-0.8682128617659177,False,2.018116178182084,-0.4238495553134056,"['As', 'Bi', 'Li', 'O', 'Pb']"
mp-758192,LiCuPO4,4,False,-0.1732133355197638,0.19920373010703,-0.7107202156860672,False,-0.4679388540743454,-0.7180538684649512,"['Cu', 'Li', 'O', 'P']"
mp-778245,Li4FeF8,3,True,-0.8219477528822403,0.6207965604942854,-0.8682128617659177,False,-0.5628032938281402,0.3151699979711789,"['F', 'Fe', 'Li']"
mp-1078209,LiLa2FeO6,4,True,-0.8668951811256796,-0.1388304211958057,-0.3572081326323685,False,1.8232089561868816,-0.5915568852105856,"['Fe', 'La', 'Li', 'O']"
mp-530102,Li21Mo11O32,3,False,-0.1497176628722994,0.0588488775147293,-0.8596137362060985,False,0.4320755168298629,0.6303782496899825,"['Li', 'Mo', 'O']"
mp-753105,Li2Mn5O10,3,True,0.0415297880088544,-0.141811203551214,-0.6715840379413743,False,0.2101287629391894,-0.708945370404996,"['Li', 'Mn', 'O']"
mp-1175757,Li9Mn2Co5O16,4,True,0.1501431183167175,0.2152128273146156,-0.3177334066372896,False,0.2976363014647858,-0.4117692114759168,"['Co', 'Li', 'Mn', 'O']"
mp-1174934,Li7Mn2(CoO4)3,4,True,0.1023308611195755,0.2061313786685272,-0.854806351050608,False,0.2181068169934429,-0.6179300245438917,"['Co', 'Li', 'Mn', 'O']"
mp-771651,Li8Mn13Fe3O32,4,True,-0.0522396685334749,-0.1232805258301814,-0.6109161914720938,False,0.1927694816211597,0.482600219723566,"['Fe', 'Li', 'Mn', 'O']"
mp-1035108,LiMg14GaO16,4,False,-1.059963367188113,0.2896569170717037,2.5838959377762727,True,-0.0758030491485473,-0.3509663985972308,"['Ga', 'Li', 'Mg', 'O']"
mp-768074,LiTaWO6,4,False,-0.7550339445971679,-0.4793286999465354,1.4089303799845023,True,1.0777330430133882,0.4351835306945324,"['Li', 'O', 'Ta', 'W']"
mp-1222426,LiCNO,4,False,0.8056066189863506,-0.0204127247976282,2.389569242054358,True,-1.2904159522916057,-1.1092736606390088,"['C', 'Li', 'N', 'O']"
mp-17685,Li3GaGeO5,4,False,-0.4157693666690052,0.3231285367190233,1.4970883443851746,True,-0.0833630171671742,0.0482964553434591,"['Ga', 'Ge', 'Li', 'O']"
mp-1211300,Li(HO)2,3,False,1.148118329286978,0.7624768074503584,-0.8682128617659177,False,-1.9357264493794637,-1.0090035630991918,"['H', 'Li', 'O']"
mp-1175670,Li9Mn2Co5O16,4,True,0.1594467525105802,0.217666460267358,-0.6059056773663719,False,0.2965966870637133,-0.4114630083827482,"['Co', 'Li', 'Mn', 'O']"
mp-768683,LiFe2(SO4)3,4,True,0.0778612345815698,0.0982412922385008,-0.733538367762124,False,-0.5605968107917527,0.1014390440943358,"['Fe', 'Li', 'O', 'S']"
mp-754336,Li2MnFeO4,4,True,-0.0609395561743443,0.0269096152657006,-0.8682128617659177,False,0.2982405473279096,-1.0225570345341133,"['Fe', 'Li', 'Mn', 'O']"
mp-767597,LiMnF5,3,True,-0.7714380781493443,0.4797752069050607,0.5077149374553446,True,-0.6115935781306698,-0.177282212392049,"['F', 'Li', 'Mn']"
mp-26675,LiSb(PO3)4,4,False,-0.5650115249512763,-0.0138496759914017,2.044656284560479,True,-0.6121509875134166,1.769341372334353,"['Li', 'O', 'P', 'Sb']"
mp-505089,Li4TbF8,3,False,-1.498312400283035,-0.324572963820429,-0.8682128617659177,False,0.0724376106908578,0.4453339575603265,"['F', 'Li', 'Tb']"
mp-1236521,LiTiH6(OF3)2,5,False,-0.2062795813675945,0.5494528010952233,-0.6173486082294394,False,-1.0959440341035351,-0.7685849156178793,"['F', 'H', 'Li', 'O', 'Ti']"
mp-1178122,Li(FeO2)2,3,True,0.3858564684617936,0.038867625903222,-0.8682128617659177,False,0.2033361176362511,0.4898416357349642,"['Fe', 'Li', 'O']"
mp-777396,Li2Mn3FeO8,4,True,-0.0330828506913206,-0.114642963488555,-0.266951169079298,False,0.2027735658717994,0.4773253114601308,"['Fe', 'Li', 'Mn', 'O']"
mp-1184986,Li2NdGa,3,False,1.8094937586354036,-1.2941936397010474,-0.7768048341615336,False,0.7197972624179597,-1.01177262589206,"['Ga', 'Li', 'Nd']"
mp-760034,Li2VFeP2(HO5)2,6,True,-0.4314825009517091,-0.001157992596422,0.1571143693549708,True,-0.421942669137002,0.3509667974577353,"['Fe', 'H', 'Li', 'O', 'P', 'V']"
mp-760108,Li7Fe7P6(O8F)3,5,True,-0.5568221072650112,-0.0257321503694334,1.388278936710919,True,-0.2055975472627464,1.7319633888242143,"['F', 'Fe', 'Li', 'O', 'P']"
mp-1222303,LiNdS2,3,False,-0.0563941404375458,0.4391803208856995,0.3695195416475303,True,0.1992219206906581,-0.9831069856168304,"['Li', 'Nd', 'S']"
mp-756894,LiVO2,3,False,-0.4882344223873223,-0.1052119457371766,0.1191969653116698,True,0.057585144287098,-0.7887846844051545,"['Li', 'O', 'V']"
mp-1396042,Li3V3O5F3,4,False,2.0630864347363023,0.7676546734479729,-0.4173343019010298,False,-0.2687882448348692,-0.7933231010263998,"['F', 'Li', 'O', 'V']"
mp-767171,Li5(NbS2)7,3,False,0.4776642852576817,0.1225850166561212,-0.8682128617659177,False,0.304831719381525,1.3474207638239382,"['Li', 'Nb', 'S']"
mp-26188,LiMn2P5O16,4,True,-0.6212661442282875,-0.1541409675275338,0.6038626405651414,True,-0.6720694047681105,0.604838681426569,"['Li', 'Mn', 'O', 'P']"
mp-28623,Li4Ge5O12,3,False,-0.2747736491047871,0.2210533524746853,1.1764831512690552,True,0.6183234622318544,-0.0421742093638134,"['Ge', 'Li', 'O']"
mp-759902,Li3Fe8(BO3)8,4,True,-0.3018861565018362,-0.1985699936537309,0.2304439203887107,True,-0.359560555858252,0.1618420059973576,"['B', 'Fe', 'Li', 'O']"
mp-1177116,Li5FeO4F,4,True,-0.1572988998811616,0.4495650318900646,-0.3731199004005385,False,-0.7981102738392041,0.0634230530868627,"['F', 'Fe', 'Li', 'O']"
mp-1177071,Li6V3P8O29,4,False,-0.7529719170676767,-0.0823051124681688,0.206745542861648,True,-0.7840646481901123,2.132533445767247,"['Li', 'O', 'P', 'V']"
mp-1175878,Li9Mn2Co5O16,4,True,0.152855121283613,0.2159280596323157,-0.0826455015688266,False,0.2952977657557422,-0.4110801112399969,"['Co', 'Li', 'Mn', 'O']"
mp-863371,Li3V3P8O29,4,False,-0.6005249953687244,-0.1027012343676343,-0.2307265062879301,False,-0.8312230151897584,2.147643231549847,"['Li', 'O', 'P', 'V']"