material_id,formula_pretty,n_elements,contains_transition_metal,formation_energy_per_atom,energy_per_atom,band_gap,is_semiconductor,density,volume,elements
mp-26111,LiCr(PO3)3,4,False,-0.68530151491026,-0.1412138317831567,1.234984288935861,True,-0.5357332832880736,0.6856937906845215,"['Cr', 'Li', 'O', 'P']"
mp-1198729,Li22Sn5,2,False,1.8075501708564008,1.3487175345956528,-0.8682128617659177,False,-0.7825338952776356,4.3081513989545375,"['Li', 'Sn']"
mp-1174206,Li3MnCoO5,4,True,0.26428498366815,0.2516656898861144,-0.8682128617659177,False,0.0304955227228164,-0.6957465662261101,"['Co', 'Li', 'Mn', 'O']"
mp-756774,LiMn3(FeO4)2,4,True,0.1383552804539319,-0.2054074881225457,-0.8217640418128748,False,0.4346159096835316,-0.7897619458759058,"['Fe', 'Li', 'Mn', 'O']"
mp-755672,Li4Ni5SnO12,4,True,0.6000674057688531,0.3791922868999482,-0.4878200476315228,False,0.6294120707260649,-0.5922121553301185,"['Li', 'Ni', 'O', 'Sn']"
mp-1211106,LiPr2RuO6,4,False,-0.8939421457499548,-0.161147189881445,-0.6640682667827923,False,1.7968408240502234,-0.5142425020479813,"['Li', 'O', 'Pr', 'Ru']"
mp-758838,Li4Mn5(NiO6)2,4,True,0.0467581047173759,-0.0180015687352566,-0.4248500730596126,False,0.5282662106103628,0.0542857522429902,"['Li', 'Mn', 'Ni', 'O']"
mp-756536,Li2Ti3MnO8,4,True,-1.178914060234951,-0.3524272700246514,-0.37183341704907,False,-0.1142468360543291,-0.326131432420746,"['Li', 'Mn', 'O', 'Ti']"
mp-767572,Li2MnF5,3,True,-1.056234245615293,0.4423738349196759,0.4038483342367319,True,-0.8337219228623146,0.0165339041003334,"['F', 'Li', 'Mn']"
mp-736,Li3P,2,False,1.2812680396761231,0.7043058517248652,-0.3945161498249723,False,-1.5210030828424572,-0.9018143120443176,"['Li', 'P']"
mp-774827,Li4V2CrTeO12,5,False,-0.1515520761582422,0.0774198024540665,-0.3130614407819537,False,0.3143998738993585,-0.668645405969196,"['Cr', 'Li', 'O', 'Te', 'V']"
mp-25400,Li2TiPCO7,5,False,-0.6594956792524376,-0.1099258140656903,-0.6981262207716853,False,-0.796379923839484,-0.4262497849424319,"['C', 'Li', 'O', 'P', 'Ti']"
mp-1175651,Li9Mn2Co5O16,4,True,0.1511767484114522,0.2154854249693108,-0.0535303520355789,False,0.2830701784924754,-0.4074581910064403,"['Co', 'Li', 'Mn', 'O']"
mp-1222590,Li3Al(CoO3)2,4,True,-0.1890194481367717,0.1970964920621634,-0.2859775807510249,False,0.2358498352008717,-0.9323352934066064,"['Al', 'Co', 'Li', 'O']"
mp-6597,CsLiSO4,4,False,-0.356364247720349,0.3361129096548764,2.6305478866795475,True,-0.3204881821468255,0.1450272363201398,"['Cs', 'Li', 'O', 'S']"
mp-1185192,Li3La,2,False,2.393131417940703,-0.5070755618128624,-0.8682128617659177,False,-0.7917250419177693,-0.939777081288268,"['La', 'Li']"
mp-778018,LiCrB3(HO3)3,5,False,-0.1949849884590279,0.0141105851449436,0.0856129788733187,True,-1.1173661146777574,3.157869477948981,"['B', 'Cr', 'H', 'Li', 'O']"
mp-1651415,Li2MnP2O7,4,True,-0.6766085955685303,-0.0528631605558109,0.8080749451983454,True,-0.8224626445506137,0.6088319803595338,"['Li', 'Mn', 'O', 'P']"
mp-1103120,LiB11,2,False,2.8907738852160585,0.2895260184149701,-0.8682128617659177,False,-0.8193613008635318,-0.9991942428499716,"['B', 'Li']"
mp-1210901,LiLa2TiO6,4,False,-1.5147861410760175,-0.2930278684290234,-0.8682128617659177,False,1.286127556207061,-0.5135421093389769,"['La', 'Li', 'O', 'Ti']"
mp-1101536,Li3Bi(PO4)2,4,False,-0.6483749586192643,0.1236184121852884,1.7086810008768067,True,0.3769693992649447,0.1615782049657678,"['Bi', 'Li', 'O', 'P']"
mp-849144,Li3Ti2(FeO4)2,4,True,-0.1251027605923511,-0.0038084944841966,-0.8596137362060979,False,0.0602322275085267,-0.7933467847007393,"['Fe', 'Li', 'O', 'Ti']"
mp-769019,Li(BiO2)2,3,False,0.3810052999898879,0.4172660012346847,-0.8682128617659177,False,2.75527829815605,-0.0464257508432593,"['Bi', 'Li', 'O']"
mp-1185354,LiGd2Os,3,False,1.985135829700417,-8.249985459651668,-0.8682128617659177,False,4.178684666402621,-0.992705585170589,"['Gd', 'Li', 'Os']"
mp-1175669,Li9Mn2Co5O16,4,True,0.141655832288895,0.2129744885919957,0.0189189735471564,True,0.3283012256107264,-0.4207001925484436,"['Co', 'Li', 'Mn', 'O']"
mp-1662205,LiCoPO4,4,True,-0.4432573398052706,0.0022184815823092,1.248119961050862,True,-0.4590545429950288,-0.2313401012034095,"['Co', 'Li', 'O', 'P']"
mp-1210755,Li2AlSi,3,False,2.033882230987905,1.1329842732554152,-0.8682128617659177,False,-1.3454399489482696,-0.8579845552985382,"['Al', 'Li', 'Si']"
mp-771360,Li6MnSn3(PO4)6,5,True,-0.5939098618474193,0.0482558664330844,0.9004309079038129,True,-0.2301168498962966,0.2012523005388737,"['Li', 'Mn', 'O', 'P', 'Sn']"
mp-1211126,LiSc(WO4)2,4,False,-0.7206096953820874,-0.434280084220653,1.5461778406912343,True,1.760961545210608,-0.4153762047952892,"['Li', 'O', 'Sc', 'W']"
mp-759239,Li3Fe4(BO3)4,4,True,-0.3573339271478463,-0.1412036335975567,0.2059330270607201,True,-0.3375304034842424,0.1784012091051835,"['B', 'Fe', 'Li', 'O']"
mp-758608,Li4V2Fe5O12,4,True,-0.0189780160869886,-0.0750449835331786,-0.2283566685352238,False,0.4314610929094154,0.0728996378412541,"['Fe', 'Li', 'O', 'V']"
mp-1013795,Li3Ge3(MoO6)2,4,False,-0.1353527956409078,0.0427063984320078,-0.8682128617659177,False,0.4062944657400537,1.5023211986551763,"['Ge', 'Li', 'Mo', 'O']"
mp-27027,Li3Fe3(PO4)4,4,True,-0.5303402389461034,-0.07378997461984,0.549153243302666,True,-0.5309888571254563,0.6049776466428668,"['Fe', 'Li', 'O', 'P']"
mp-756975,LiCo2OF5,4,True,-0.1871856346133343,0.4998890500492301,-0.291258933457056,False,0.2237616837242854,-0.4077491203272558,"['Co', 'F', 'Li', 'O']"
mp-760819,LiAg2F6,3,False,0.3873314122458304,-0.4176803257828463,-0.8143159803043695,False,0.5163807893630565,0.189789504574573,"['Ag', 'F', 'Li']"
mp-1278428,LiV3O4,3,False,-0.3033235812344991,-0.3166712124090365,-0.8682128617659177,False,0.6049876681331714,-0.7771183197753561,"['Li', 'O', 'V']"
mp-738611,LiAsH20(C2O)4,5,False,1.7950082573129702,0.5775952292879456,-0.6088849019697747,False,-1.7116910613194614,0.8707762028093761,"['As', 'C', 'H', 'Li', 'O']"
mp-752476,Li3(FeO2)5,3,True,0.3099040001069185,0.0479417689034512,-0.5574255679110093,False,0.1819492860878707,-0.6897232876037025,"['Fe', 'Li', 'O']"
mp-766684,Li3MnPCO7,5,True,-0.4734994418027005,-0.018303735002601,1.5085312752482432,True,-0.6353196916522919,0.3420360582362021,"['C', 'Li', 'Mn', 'O', 'P']"
mp-1176940,Li7Mn4(P2O7)4,4,True,-0.7261735407723616,-0.0842179829381923,-0.6737507467438487,False,-0.5337513906271285,1.8933725358444164,"['Li', 'Mn', 'O', 'P']"
mp-761608,Li2CoNiO4,4,True,0.46735808749468,0.3373687951509027,-0.8682128617659177,False,0.5838275725529932,-0.8325817088846059,"['Co', 'Li', 'Ni', 'O']"
mp-1100565,Li9Mn2Co5O16,4,True,0.2067218356910695,0.2301342443094051,-0.8682128617659177,False,0.2496836204777044,-0.3974052831456542,"['Co', 'Li', 'Mn', 'O']"
mp-1297814,Li2Fe2(CO3)3,4,True,0.1388438201816123,-0.1106675831615012,1.4704107422547106,True,-0.5724012695303502,-0.7319390706539974,"['C', 'Fe', 'Li', 'O']"
mp-1093592,Li2SnBi,3,False,3.3162576411705347,1.563398409198308,-0.8086960793479523,False,-2.150785158326918,1.819923782812912,"['Bi', 'Li', 'Sn']"
mp-776657,Li2Fe3F8,3,True,-0.8128804979903776,0.3303129454213966,1.273781918430167,True,-0.2397565834083506,-0.2955161252385245,"['F', 'Fe', 'Li']"
mp-761172,Li3TiCo3O8,4,True,-0.0632649613599407,0.0789491899620255,-0.4345325530206703,False,0.6716366727796818,-0.4847630527486112,"['Co', 'Li', 'O', 'Ti']"
mp-1177246,Li4V3O8,3,False,-0.5063895167889865,-0.0353020747951079,0.0129605243403514,True,-0.2561022105158337,-0.7987553488605108,"['Li', 'O', 'V']"
mp-775195,Li12Mn11Fe(PO4)12,5,True,-0.7093880418754966,-0.1496622245595633,1.6306117743376547,True,-0.2737955734356837,1.4644473417615935,"['Fe', 'Li', 'Mn', 'O', 'P']"
mp-6665,Ba4LiW2N7,4,False,1.011907105502437,-0.1397962100129122,0.5203089323697261,True,1.7149630883934,1.866504052351713,"['Ba', 'Li', 'N', 'W']"
mp-774617,Li4Ti2Mn4Cr3O18,5,True,-0.4362956747365298,-0.2432273188084227,-0.8682128617659177,False,0.1096161381527549,0.6906367684849378,"['Cr', 'Li', 'Mn', 'O', 'Ti']"
mp-14399,LiAlSiO4,4,False,-1.3530298794436382,-0.0976976236355549,2.4147572318831223,True,-0.9937742243410002,1.9630000061434816,"['Al', 'Li', 'O', 'Si']"
mp-26863,Li2Mo(PO4)2,4,False,-0.6219752561691939,-0.0777597780271515,0.2333554353420355,True,-0.3310283982918579,-0.3551098185540601,"['Li', 'Mo', 'O', 'P']"
mp-531826,Li2PtO3,3,False,0.3206718825189887,0.4272947915467305,0.3789988926583554,True,2.6280356346626568,0.6874943438497444,"['Li', 'O', 'Pt']"
mp-18767,LiMnO2,3,True,-0.1877182501852956,-0.0316230845122029,-0.6312290864952903,False,0.319570998598796,-1.025211364006631,"['Li', 'Mn', 'O']"
mp-754433,Li2CoBO4,4,True,-0.1663451250023616,0.137628646405388,-0.2033718076566919,False,-0.3850074988327026,-0.7922316573267759,"['B', 'Co', 'Li', 'O']"
mp-1201607,Li7CuSi2,3,False,1.9298394673907957,1.2262334693759036,-0.8682128617659177,False,-1.2543384629535077,0.4830583064938448,"['Cu', 'Li', 'Si']"
mp-1176791,Li9Mn(SiO5)2,4,True,-0.5734421175233433,0.2444380768900751,-0.1023490097413274,False,-0.9585352838218166,0.142141352712505,"['Li', 'Mn', 'O', 'Si']"
mp-1222612,Li2SnIr,3,False,1.7168535741119084,0.7826484862442025,-0.8682128617659177,False,3.433754787549642,-1.062811210336226,"['Ir', 'Li', 'Sn']"
mp-555562,LiIO3,3,False,0.8098677368913805,0.6917447402038609,1.5518654512977292,True,-0.1141394914673242,0.7104914046710714,"['I', 'Li', 'O']"
mp-1176630,LiMnF3,3,True,-1.1467928933042095,0.2606916518909735,1.5887672105898698,True,-0.4163114918810642,-0.5092557269909246,"['F', 'Li', 'Mn']"
mp-1100654,Li9Mn2Co5O16,4,True,0.1607825764298925,0.2180187550286512,-0.5126017795598228,False,0.2559148378026986,-0.3992999696115636,"['Co', 'Li', 'Mn', 'O']"
mp-757506,Li2CoP2O7,4,True,-0.4995448688561623,0.0428829966083231,0.8486330255946616,True,-0.6530178524595474,2.1738291489311217,"['Co', 'Li', 'O', 'P']"
mp-849539,Li2MnVP2(HO5)2,6,True,-0.4690576143440234,-0.0222220864067595,-0.5551234398083803,False,-0.4502857656322189,-0.1669804779085885,"['H', 'Li', 'Mn', 'O', 'P', 'V']"
mp-1174385,Li5Mn2CoO8,4,True,-0.0644591301981016,0.1692001210089522,0.0505393801332658,True,0.0998403228252145,-0.4228746264676547,"['Co', 'Li', 'Mn', 'O']"
mp-25391,Li2CrPO4F,5,False,-0.7573302657016354,0.0303928731660294,1.0317876290538175,True,-0.5329267431891574,-0.6542313929783328,"['Cr', 'F', 'Li', 'O', 'P']"
mp-1235241,LiTiH6(OF3)2,5,False,-0.2495895619273592,0.5380307273905016,-0.7632629041460685,False,-1.1804424101847777,-0.7387223878710681,"['F', 'H', 'Li', 'O', 'Ti']"
mp-859108,Li2Mn2Si2O7,4,True,-0.7996781806739566,-0.1815410812571944,1.1800040530730758,True,-0.3057494614998206,-0.3880702620749231,"['Li', 'Mn', 'O', 'Si']"
mp-779060,Li7Mn8(BO3)8,4,True,-0.5614929906065166,-0.2072673267123919,-0.6851259679568394,False,-0.3959584335823414,0.2170907193812213,"['B', 'Li', 'Mn', 'O']"
mp-1175006,Li7Mn2(CoO4)3,4,True,0.1566733614739778,0.2204630416322251,-0.8682128617659177,False,0.1658306383790009,-0.6058091311533818,"['Co', 'Li', 'Mn', 'O']"
mp-1175529,Li9Co7O16,3,True,0.3161899167182151,0.2957911530504425,-0.3768439311547912,False,0.3264623184249214,-0.411130113320719,"['Co', 'Li', 'O']"
mp-1176231,Li9Mn2Co5O16,4,True,0.3622723065593509,0.2711573276749117,-0.8682128617659177,False,0.2226546940021452,-0.3890867069827215,"['Co', 'Li', 'Mn', 'O']"
mp-754458,Li3Cu(NiO3)2,4,True,0.5864958264636582,0.458513323946808,-0.8682128617659177,False,0.685057959480716,-0.9391011392174776,"['Cu', 'Li', 'Ni', 'O']"
mp-782647,Li2MnP3O10,4,True,-0.6376243765050088,-0.0566754367311267,0.0946183623336026,True,-1.0030888917883396,1.5032434964193042,"['Li', 'Mn', 'O', 'P']"
mp-775383,Li4V3P8O29,4,False,-0.6587777312734359,-0.0969457080438177,-0.1066147176961987,False,-0.8057456097615389,2.123146585219109,"['Li', 'O', 'P', 'V']"
mp-1246846,LiSbN2,3,False,2.241355226070593,0.4822257860284635,-0.1020104614909408,False,0.0290116832834809,1.931127897111768,"['Li', 'N', 'Sb']"
mp-766561,LiNd14(Cu3O14)2,4,False,-1.1404968196371574,-0.1346093663972141,-0.8682128617659177,False,2.1445771026384537,0.7303819529959915,"['Cu', 'Li', 'Nd', 'O']"
mp-755669,Li2AlNiO4,4,True,-0.2481745235892015,0.2715342299443776,0.1394421506847891,True,-0.3579321357764262,-0.7503288077086914,"['Al', 'Li', 'Ni', 'O']"
mp-757491,Li3V3P8O29,4,False,-0.5985481359039296,-0.1021798803005369,-0.6630526220316324,False,-0.8324493585105112,2.1501196657637296,"['Li', 'O', 'P', 'V']"
mp-1177166,Li4V5Ni3O16,4,True,-0.2003702450952479,-0.0639225855693711,-0.1003177202390084,False,0.2483998798327618,-0.4068554527112273,"['Li', 'Ni', 'O', 'V']"
mp-773757,Na2Li5Ti3Fe(PO4)6,6,True,-0.8586312635666333,-0.0721086403841671,-0.8022636625906061,False,-0.5552748147314213,0.1574270556877422,"['Fe', 'Li', 'Na', 'O', 'P', 'Ti']"
mp-1097902,Li3Mn4O8,3,True,-0.0528122395302153,-0.0605113080231663,-0.6222914126850845,False,0.0165013749146311,0.6345052864007595,"['Li', 'Mn', 'O']"
mp-1210778,Li2Sm2Si3,3,False,1.5226818150143788,0.7162804257486987,-0.8682128617659177,False,0.7749614545459882,-0.4588933706962945,"['Li', 'Si', 'Sm']"
mp-1211174,LiNd(MoO4)2,4,False,-0.566628737188714,-0.2536920741868638,1.2297029362298302,True,0.7710709023221961,-0.3167441623515972,"['Li', 'Mo', 'Nd', 'O']"
mp-778032,LiV2(SiO4)2,4,False,-0.8960627586725916,-0.2713022204844962,-0.0865049516232347,False,-0.1871968192616336,-0.42852993998153,"['Li', 'O', 'Si', 'V']"
mp-768851,Li4AlCr3O8,4,False,-0.6491932502230331,-0.0818177007933893,1.4322224996111008,True,0.1082751611638803,-0.4078042592600613,"['Al', 'Cr', 'Li', 'O']"
mp-1206399,Rb2LiVCl6,4,False,-0.0764262584720462,0.8209344342220137,-0.8682128617659177,False,-0.6747804960933991,-0.4659443979795188,"['Cl', 'Li', 'Rb', 'V']"
mp-753527,Li2Mn(SiO3)2,4,True,-0.914474647660806,-0.1140725250935017,1.4317485320605596,True,-0.7230835629389811,-0.4442719889990577,"['Li', 'Mn', 'O', 'Si']"
mp-1235134,Cs7LiAu5O2,4,False,1.5348676479814634,1.2756211662884411,-0.8682128617659177,False,1.3253243944393958,0.3967528262812606,"['Au', 'Cs', 'Li', 'O']"
mp-1235183,Sr4LiY2(RuO6)2,5,False,-0.8206329593125897,-0.0540905694643485,-0.8682128617659177,False,1.038420725052713,-0.3977140459125867,"['Li', 'O', 'Ru', 'Sr', 'Y']"
mp-1273464,Li2Fe3SnO8,4,True,0.1762549417915309,0.0760317883184464,-0.8682128617659177,False,0.6082791154180112,-0.3569978095891748,"['Fe', 'Li', 'O', 'Sn']"
mp-1100628,Li9Mn2Co5O16,4,True,0.2182256295667154,0.2331681219476145,-0.8682128617659177,False,0.2617426272084375,-0.4010642763414518,"['Co', 'Li', 'Mn', 'O']"
mp-759548,Li5V3P8O29,4,False,-0.708670598829119,-0.0899240435352208,-0.269591845432313,False,-0.7993842985340883,2.136688043343607,"['Li', 'O', 'P', 'V']"
mp-765171,Li4V3Co3(SbO8)2,5,True,-0.1306831876667132,0.015075680340452,-0.6333280856476874,False,0.6333153472211213,-0.3633503389576236,"['Co', 'Li', 'O', 'Sb', 'V']"
mp-867139,LiEr2Tc,3,False,2.0920768224365496,-4.8877173166817816,-0.8682128617659177,False,3.357664999689977,-0.9978442155367624,"['Er', 'Li', 'Tc']"
mp-777887,Li3VF5,3,False,-1.139499685361477,0.452260541999284,0.8359036113801249,True,-0.5835410855184238,-0.404681728950101,"['F', 'Li', 'V']"
mp-757856,Li2FeCo3O8,4,True,0.542298883065804,0.1632286354350398,-0.8682128617659177,False,0.8001752388431178,-0.512015340706997,"['Co', 'Fe', 'Li', 'O']"
mp-773041,Li2V3SnO8,4,False,-0.3848543679523759,-0.1101166705973829,-0.8682128617659177,False,0.4930317817595999,0.5289273367896571,"['Li', 'O', 'Sn', 'V']"
mp-758143,Li3Ni5O8,3,True,0.6133823257564651,0.3547594475737702,-0.8682128617659177,False,0.9716220831174394,-0.0152324364343912,"['Li', 'Ni', 'O']"
mp-857359,LiMnPO4,4,True,-0.6489798104727438,-0.1361210988720909,1.510427145450408,True,-0.3171180570215046,-0.3199214997057893,"['Li', 'Mn', 'O', 'P']"
mp-765564,Li2NiP2O7,4,True,-0.5182437245697677,0.0706724888935719,-0.3842919926632973,False,-0.5439244165690238,0.3715695626734501,"['Li', 'Ni', 'O', 'P']"
mp-754313,LiV3CoO10,4,True,-0.0386084699940176,-0.1305624771323534,-0.4120529491949987,False,-0.4245888230772707,-0.6553428329179328,"['Co', 'Li', 'O', 'V']"
mp-761971,LiLaNb4O12,4,False,-1.2322623596915712,-0.504960575975198,0.0273149701567438,True,0.5865648717433645,0.9675209900832012,"['La', 'Li', 'Nb', 'O']"
mp-1220829,Na5Li3V8O24,4,False,-0.450251608203522,-0.0587100118159754,1.203973269200448,True,-0.6310361229443071,0.3458184247730549,"['Li', 'Na', 'O', 'V']"
mp-771125,Li5Fe5(PO4)6,4,True,-0.4822987359583859,-0.0619459161596492,0.6003417387611213,True,-0.383685694327414,0.0957760665709785,"['Fe', 'Li', 'O', 'P']"
mp-753965,Li3Mn2(SiO4)2,4,True,-0.6789240511819632,-0.081075637753886,-0.8682128617659177,False,-0.5232447883699846,-0.2208500422636273,"['Li', 'Mn', 'O', 'Si']"
mp-861553,Li6Mn3Cr2Fe3O16,5,True,-0.0565544505083153,-0.0509183140075132,-0.6161298345280483,False,0.333897017957271,-0.4099234455494961,"['Cr', 'Fe', 'Li', 'Mn', 'O']"
mp-758383,LiCu3(CO3)3,4,False,0.586021318611324,0.1260694089916973,-0.8682128617659177,False,-0.1776093660639868,0.3205703773579572,"['C', 'Cu', 'Li', 'O']"
mp-1177706,Li3Fe3WO8,4,True,0.0322410317934646,-0.0713531654708403,-0.8594106072558666,False,0.8806995986852227,-0.7647731537266085,"['Fe', 'Li', 'O', 'W']"
mp-1020056,LiCa3Si2N5,4,False,0.7418132785686917,0.1394307897303536,0.7826838264193499,True,-0.4782835743286674,0.362891401421174,"['Ca', 'Li', 'N', 'Si']"
mp-17510,LiGa(WO4)2,4,False,-0.2844123295942352,-0.2393461073094344,1.468176323802158,True,2.161323688218138,-0.4518820073353566,"['Ga', 'Li', 'O', 'W']"
mp-1210933,LiV(WO4)2,4,False,-0.3830912954210823,-0.41179378381874,0.3764936356054945,True,1.9601765685342656,-0.4434577141734886,"['Li', 'O', 'V', 'W']"
mp-770764,Li2Fe(BO2)5,4,True,-0.7373561229559056,-0.1896923329953668,1.1996398515954991,True,-0.9473268721148128,1.093474748595769,"['B', 'Fe', 'Li', 'O']"
mp-1104112,LiTi2O4,3,False,-1.3440833713818523,-0.3697386378729434,-0.8682128617659177,False,-0.0803367368592387,-0.7978469115378867,"['Li', 'O', 'Ti']"
mp-755013,Li5TaO5,3,False,-0.7474882926956655,0.1242840734003385,1.6818679794461866,True,0.5873177101811179,-0.9318396646188712,"['Li', 'O', 'Ta']"
mp-1236024,Ba2LiZn2(SO)2,5,False,0.2135984931752053,0.7427296132979299,-0.8682128617659177,False,0.5708361425267718,-0.708452440280996,"['Ba', 'Li', 'O', 'S', 'Zn']"
mp-777807,Li2VF5,3,False,-1.2701181459641115,0.3887994674319339,0.5198349648191852,True,-0.7067339854890363,1.0375097324741245,"['F', 'Li', 'V']"
mp-756697,Li2V3FeO8,4,True,-0.31032325606235,-0.1829027430898533,-0.8682128617659177,False,0.0866648655988495,-0.804915143525158,"['Fe', 'Li', 'O', 'V']"
mp-754396,Li5Mn4O8,3,True,-0.1030644947631197,0.0475849675413905,-0.7122098279877683,False,0.0673906912195437,-0.2857459830615834,"['Li', 'Mn', 'O']"
mp-766023,Li2Cu2Si4O11,4,False,-0.6737236380682489,0.015017146253766,-0.4453660970330412,False,-0.2295324564746345,-0.0298075533468579,"['Cu', 'Li', 'O', 'Si']"
mp-1093699,LiMgHg2,3,False,2.789452281118079,1.972750591975339,-0.8682128617659177,False,-2.069903911446763,1.9203867109839237,"['Hg', 'Li', 'Mg']"
mp-760155,Li5Co4(NiO6)2,4,True,0.4986150315306387,0.2950285331771188,-0.7571013259890329,False,0.4093417831874754,0.6739206764753585,"['Co', 'Li', 'Ni', 'O']"
mp-1643079,Li2MnO2F,4,True,-0.5329098518854457,0.1994355690020366,0.5686536225249341,True,-0.1797180174360527,-0.5780936772241978,"['F', 'Li', 'Mn', 'O']"
mp-1174550,Li5Mn3O8,3,True,-0.1490403165947641,0.1101065942199973,-0.7314393686097277,False,0.0264192614906515,-0.823762883121619,"['Li', 'Mn', 'O']"
mp-23662,LiB(HO)4,4,False,0.123213388902878,0.3537662163346484,3.0229253088776296,True,-1.2956463667716096,0.5761110720879745,"['B', 'H', 'Li', 'O']"
mp-685797,Li6Ti9O20,3,False,-1.3566666279699038,-0.323428953701375,-0.8682128617659177,False,-0.1887539252603815,3.1442692175531386,"['Li', 'O', 'Ti']"
mp-753065,Li4Mn3V3(WO8)2,5,True,-0.3666721478380603,-0.2932070371800426,-0.3145510530836555,False,0.8859574860876129,-0.3224519298215463,"['Li', 'Mn', 'O', 'V', 'W']"
mp-1175593,Li9Mn2Co5O16,4,True,0.15317900163191,0.2160134760920311,-0.5048828794510073,False,0.3329080247148605,-0.422025244427323,"['Co', 'Li', 'Mn', 'O']"