material_id,formula_pretty,n_elements,contains_transition_metal,formation_energy_per_atom,energy_per_atom,band_gap,is_semiconductor,density,volume,elements
mp-771110,Li4Mn5P6WO24,5,True,-0.59562966925921,-0.197079582433516,0.8279138726710009,True,-0.1587880349486027,0.2034038414437463,"['Li', 'Mn', 'O', 'P', 'W']"
mp-1185405,LiLu2Re,3,False,2.1742915404483365,0.414783776853,-0.8682128617659177,False,5.165820149971501,-1.0111444993920322,"['Li', 'Lu', 'Re']"
mp-765415,Li3V3P8O29,4,False,-0.597470387520722,-0.1018956473983499,-0.4662883789069337,False,-0.8571293630897744,2.200739148995114,"['Li', 'O', 'P', 'V']"
mp-780287,Li3Mn2(SiO4)2,4,True,-0.6791568395355183,-0.0811370306637312,-0.8682128617659177,False,-0.5723314637954054,-0.1950671294900914,"['Li', 'Mn', 'O', 'Si']"
mp-2475638,LiBe,2,False,2.350128163814348,1.339124694943893,-0.8682128617659177,False,-1.7348394406048908,-1.1059503986853874,"['Be', 'Li']"
mp-1246439,Li2RuN2,3,False,1.9409236132459031,0.3231619679600989,-0.8682128617659177,False,1.0023977801860884,-1.107537825734898,"['Li', 'N', 'Ru']"
mp-759647,LiWF6,3,False,-1.0284125519728058,0.3118532189423021,1.4825307696185512,True,0.640710533416969,0.0034808925095574,"['F', 'Li', 'W']"
mp-779086,LiCr(PO3)4,4,False,-0.670801123880646,-0.1307932202469736,1.037949207210854,True,-0.6626471458591603,0.0643022865639482,"['Cr', 'Li', 'O', 'P']"
mp-753043,Li2VO2F,4,False,-0.7174628117989139,0.1545409048645017,0.2367409178459016,True,-0.2666676081719842,-0.5753704206720712,"['F', 'Li', 'O', 'V']"
mp-1185255,Li3Rh,2,False,2.146030154012056,-0.1654162559872581,-0.8682128617659177,False,0.0406522057917673,-0.9268028570887265,"['Li', 'Rh']"
mp-1100643,Li9Mn2Co5O16,4,True,0.1909944440007722,0.2259864837990602,-0.8682128617659177,False,0.2742327611438073,-0.4048206577581596,"['Co', 'Li', 'Mn', 'O']"
mp-1174986,Li7Mn2(CoO4)3,4,True,0.1581211155388482,0.2208448555564414,-0.8682128617659177,False,0.2051292802452544,-0.6149645849149304,"['Co', 'Li', 'Mn', 'O']"
mp-778703,Li4Mn3F10,3,True,-1.086450308931085,0.3261394126879899,1.1603682545506526,True,-0.7289855762947702,0.140727038034178,"['F', 'Li', 'Mn']"
mp-1100515,Li9Mn7O16,3,True,-0.1749661780172748,0.0375046033949208,-0.8682128617659177,False,0.1144640023514367,-0.3784992381878287,"['Li', 'Mn', 'O']"
mp-1045432,Li(CrS2)2,3,False,0.9978725897817664,0.2364324258031408,-0.8682128617659177,False,-0.2965579704872351,-0.5445173441653842,"['Cr', 'Li', 'S']"
mp-775448,Li2Ti3NiO8,4,True,-0.967450580841039,-0.2265694828319256,1.0557568451811898,True,0.0296729560759178,0.5014660544188019,"['Li', 'Ni', 'O', 'Ti']"
mp-761017,Li7Fe4(PO4)6,4,True,-0.5585598667832211,-0.0131966303992553,-0.4304699740160303,False,-0.5752930246238963,0.1583308232393152,"['Fe', 'Li', 'O', 'P']"
mp-6113,LiTiAsO5,4,False,-0.6438793347349295,-0.0532981172787635,1.313866031275941,True,0.0162736969529267,-0.1724616671668986,"['As', 'Li', 'O', 'Ti']"
mp-777002,Li4V5Cr3O16,4,False,-0.521327139230498,-0.2689661633420676,-0.1153492625561739,False,0.1563307735796267,-0.4023232890357415,"['Cr', 'Li', 'O', 'V']"
mp-1211248,Li3Tm3(TeO6)2,4,False,-0.8872319455741147,0.074012154707809,1.2566513769606045,True,2.132639282643164,1.4567711829807373,"['Li', 'O', 'Te', 'Tm']"
mp-1022972,LiMg6Mn,3,True,2.3046311424198325,1.3902178751138763,-0.8682128617659177,False,-1.1307912256995725,-0.2712543720823206,"['Li', 'Mg', 'Mn']"
mp-8180,LiNO3,3,False,0.6460247705530476,0.2531061625824971,1.1203518513549553,True,-0.8600296472319389,-0.9698989355564456,"['Li', 'N', 'O']"
mp-26421,Li3V3(PO4)4,4,False,-0.7919953468362565,-0.1633478550229419,0.3840771164141545,True,-0.6358394704400873,0.6577560453164926,"['Li', 'O', 'P', 'V']"
mp-767218,Li9(NbS2)14,3,False,0.4897814439596507,0.1064027377790506,-0.8682128617659177,False,0.3065186934505146,1.3379631961371368,"['Li', 'Nb', 'S']"
mp-1211165,Li13(Si5Pd7)2,3,False,1.5097054182245242,0.7481837144599017,-0.8682128617659177,False,1.5133489245361689,1.7302421314932452,"['Li', 'Pd', 'Si']"
mp-30228,Li4HN,3,False,1.6544027985262308,1.0384162880842391,0.4236195520593108,True,-1.6756963934738016,-0.9088129819604948,"['H', 'Li', 'N']"
mp-766456,LiFe2(PO4)2,4,True,-0.4455440043814914,-0.1246455227938599,0.2209645693778856,True,-0.6508800753535268,0.8927511379958372,"['Fe', 'Li', 'O', 'P']"
mp-2878,Li3PO4,3,False,-0.854590858436776,0.191443316715139,3.056306166365749,True,-0.8476110499487866,-0.3438333490179177,"['Li', 'O', 'P']"
mp-754187,Li3Mn2SnO6,4,True,-0.143841050681576,0.1045293367769276,-0.8682128617659177,False,0.5576230978087635,-0.5155008029661068,"['Li', 'Mn', 'O', 'Sn']"
mp-756128,Li2Cr3CoO8,4,True,-0.0584142978860973,-0.1241523607526271,-0.4938462064884038,False,0.4181406369491505,-0.4560945066042747,"['Co', 'Cr', 'Li', 'O']"
mp-1185287,LiAc3,2,False,2.3552173851699174,-12.949481566073834,-0.8682128617659177,False,2.2391077381500497,-0.7733510094734019,"['Ac', 'Li']"
mp-754728,LiScVO4,4,False,-1.1202063699082976,-0.295168496576182,0.0930610403818241,True,-0.2041349783883093,-0.3093383350447615,"['Li', 'O', 'Sc', 'V']"
mp-584129,Li2NiP2O7,4,True,-0.5632254139172551,0.0588095380344526,1.9420761646933364,True,-0.4254714721552725,0.2800585954202857,"['Li', 'Ni', 'O', 'P']"
mp-18713,Ba2Li(CuO2)3,4,False,0.1646474828612805,0.428060119821261,-0.8682128617659177,False,1.1671134368325164,-0.2464142089586682,"['Ba', 'Cu', 'Li', 'O']"
mp-757896,Li7Mn14O32,3,True,0.0412672199446576,-0.0925176941873661,-0.8682128617659177,False,0.1239775534596993,0.3819151962542441,"['Li', 'Mn', 'O']"
mp-885819,Li4Mn5CoO12,4,True,0.0389176087410365,-0.0330077747706751,-0.7864196044725127,False,0.0949800561263843,-0.5564208100646615,"['Co', 'Li', 'Mn', 'O']"
mp-867119,LiHfPd2,3,False,1.4863546488295942,-4.84847955260057,-0.8682128617659177,False,4.43335198567866,-1.054110559935232,"['Hf', 'Li', 'Pd']"
mp-1247494,Li7ReN4,3,False,1.5366687340938732,-0.6100683353670588,-0.8682128617659177,False,0.1979391049116735,1.5190179770526062,"['Li', 'N', 'Re']"
mp-1236640,Sr4LiMn2Ga2O11,5,True,-0.547510192237766,0.125161712767807,-0.8682128617659177,False,0.7966930527710505,-0.4785536441399763,"['Ga', 'Li', 'Mn', 'O', 'Sr']"
mp-850185,Li3Bi(PO4)2,4,False,-0.5871168315149664,0.1397739226185704,1.8152559900985112,True,0.2127995923016866,-0.2487153511643282,"['Bi', 'Li', 'O', 'P']"
mp-753223,LiVSiO4,4,False,-0.880746710704437,-0.1944150733436184,0.3202269163912391,True,-0.0923441165571216,-0.441878401292217,"['Li', 'O', 'Si', 'V']"
mp-758172,Li4Ni3(OF3)2,4,True,-0.4667546848455387,0.5190026343918602,1.5469226468420842,True,0.1357458959477983,-0.389490566017897,"['F', 'Li', 'Ni', 'O']"
mp-1177531,Li3V(PO4)2,4,False,-0.7710641889173826,-0.0163803272558785,-0.8682128617659177,False,-0.6793420290273952,2.4325883059945563,"['Li', 'O', 'P', 'V']"
mp-1235453,LiCu6OF11,4,False,0.2036559612901916,0.7906721016885647,-0.8682128617659177,False,0.5583405910215483,-0.59683990614831,"['Cu', 'F', 'Li', 'O']"
mp-1177657,Li4CrFe3Sn2(PO4)6,6,True,-0.5213990888477493,-0.0637218369044767,0.4178642318027383,True,-0.1546972061023483,0.1987474425119469,"['Cr', 'Fe', 'Li', 'O', 'P', 'Sn']"
mp-862842,LiPm2Pt,3,False,1.4954024640066572,-6.260317678616286,-0.8682128617659177,False,3.31092909211401,-0.9669395576912674,"['Li', 'Pm', 'Pt']"
mp-1281222,Li2CoCuO4,4,True,0.4785697795939611,0.4012903621379141,-0.840925872784757,False,0.5899218665325757,-0.8233325901669405,"['Co', 'Cu', 'Li', 'O']"
mp-752651,Li4Ti2Nb3Cu3O16,5,False,-0.5870022133134757,-0.1206314049770261,-0.8682128617659177,False,0.4435527381977295,-0.315878063815,"['Cu', 'Li', 'Nb', 'O', 'Ti']"
mp-761748,Li2CrCo3O8,4,True,0.3144251572892148,0.0786138367365775,-0.8682128617659177,False,0.5508353177065727,-0.8495329834891591,"['Co', 'Cr', 'Li', 'O']"
mp-1024988,LiYb(CuP)2,4,False,1.1980559076255617,-1.9468862847653263,-0.8682128617659177,False,2.194771226125172,-0.9864754064113208,"['Cu', 'Li', 'P', 'Yb']"
mp-757137,Li4CrNi3O8,4,True,0.2672815745116718,0.2634520622477442,-0.8682128617659177,False,0.522440794394003,-0.8319640362299405,"['Cr', 'Li', 'Ni', 'O']"
mp-673126,LiSb(PO3)4,4,False,-0.5457951096617519,-0.0087817607224349,2.056844021574397,True,-0.4448939195040519,0.1437523137044504,"['Li', 'O', 'P', 'Sb']"
mp-1102318,LiCdBO3,4,False,-0.3627318494929122,0.2635351239481628,0.792975693231103,True,0.3406093969696758,-0.8370195386711258,"['B', 'Cd', 'Li', 'O']"
mp-754546,LiNbFeO4,4,True,-0.512402113668798,-0.2656448648619086,-0.33161388490314,False,0.3500459829806731,-0.7451500654228438,"['Fe', 'Li', 'Nb', 'O']"
mp-778108,Li2MnV(P2O7)2,5,True,-0.7462257334467676,-0.1483118906573617,-0.4612778648012119,False,-0.5808907405058522,0.3179472265579425,"['Li', 'Mn', 'O', 'P', 'V']"
mp-770985,Li24MnCr11O36,4,True,-0.2787699128741404,0.0979697532598419,-0.1926736829444751,False,-0.1147549995884542,0.596714350814007,"['Cr', 'Li', 'Mn', 'O']"
mp-1095855,LiZnPt2,3,False,3.995937181626253,1.4819892526255598,-0.8635408959105833,False,-1.8150767412029245,0.899770275913391,"['Li', 'Pt', 'Zn']"
mp-779059,LiV4O5F7,4,False,-0.905916942410858,-0.0038000793050633,-0.2504300144604309,False,-0.2640152666342505,-0.0272997544851013,"['F', 'Li', 'O', 'V']"
mp-764909,Li5Mn3Cr(PO4)4,5,True,-0.5923789676444243,-0.093353155404884,-0.5337949000340239,False,-0.3849839005047539,-0.2845443648227846,"['Cr', 'Li', 'Mn', 'O', 'P']"
mp-1175712,Li9Mn2Co5O16,4,True,0.1455254241971428,0.2139950100379058,-0.2519196267621318,False,0.6199360158974537,-0.4968884151331997,"['Co', 'Li', 'Mn', 'O']"
mp-772581,LiCr6O11,3,False,-0.1958706760066084,-0.3546103902432937,-0.8682128617659177,False,0.384356170863979,-0.140704915732014,"['Cr', 'Li', 'O']"
mp-780853,LiFe3P3(HO6)2,5,True,-0.3028618329753491,-0.0572265505031031,1.4949893452327785,True,-0.227943587107126,0.0596274470481176,"['Fe', 'H', 'Li', 'O', 'P']"
mp-772718,NaLi2FePCO7,6,True,-0.3649737517479154,0.0384216330926808,1.472306612456875,True,-0.605307533932518,0.4314128687412853,"['C', 'Fe', 'Li', 'Na', 'O', 'P']"
mp-1222443,Li4ZnCd3,3,False,1.8965250694489528,-0.8180303128830004,-0.8682128617659177,False,0.9231562338101964,-0.8358574339050994,"['Cd', 'Li', 'Zn']"
mp-754966,Li2MnF6,3,True,-0.984074701350488,0.4905734767015892,0.9719322983854648,True,-0.2440316224499802,-0.7203140718520454,"['F', 'Li', 'Mn']"
mp-758354,Li2Co(SiO3)2,4,True,-0.763346385950397,-0.0207072498622186,1.3211109638342151,True,-0.6117672837551967,-0.477338208796588,"['Co', 'Li', 'O', 'Si']"
mp-1236222,LiCu2B2H8(ClO4)2,6,False,0.4662705419498072,0.4770606761265555,-0.8682128617659177,False,-0.6993814392369573,-0.5953407176342324,"['B', 'Cl', 'Cu', 'H', 'Li', 'O']"
mp-757250,Li2Mn(SiO3)2,4,True,-0.8817755214719099,-0.1054488354824159,1.0350376922575295,True,-0.5491121887354893,0.9320866852411832,"['Li', 'Mn', 'O', 'Si']"
mp-761094,Li10FeCo9O20,4,True,0.2904256862149985,0.231930005582499,0.4609952789019917,True,0.5235919937592962,-0.2060904023954429,"['Co', 'Fe', 'Li', 'O']"
mp-1232407,Li3B3(H8N)2,4,False,1.828251292099528,0.851087726415917,3.167959379343253,True,-1.9954450753529505,-0.0215829240622488,"['B', 'H', 'Li', 'N']"
mp-865915,Li2AcPb,3,False,1.834734765407994,1.1774504627788271,-0.8682128617659177,False,2.6158582652750866,-0.9576638641983442,"['Ac', 'Li', 'Pb']"
mp-863369,Li4V2F9,3,False,-1.2671052966394336,0.3722814309652278,-0.2110229981154293,False,-0.4421619925995294,-0.3049373606097862,"['F', 'Li', 'V']"
mp-770651,Li10Fe9CoO20,4,True,0.0594519408253091,0.093453143969801,-0.6554014315728951,False,0.3084757946708045,-0.1554245866314598,"['Co', 'Fe', 'Li', 'O']"
mp-863081,Li2CrFeO4,4,True,-0.2109734699240182,-0.0304675707493849,0.472641338715292,True,0.2730416001764182,-0.5956914987761776,"['Cr', 'Fe', 'Li', 'O']"
mp-768529,LiMnV(PO4)3,5,True,-0.577193380737685,-0.1573237000597264,-0.2917329010075973,False,-0.5651318091971654,0.0745816162463977,"['Li', 'Mn', 'O', 'P', 'V']"
mp-766004,Li2V(CO3)2,4,False,-0.1296107800437103,-0.1056635120168846,1.2351874178860935,True,-0.9585983606512338,0.2916257559280799,"['C', 'Li', 'O', 'V']"
mp-755709,LiFeO2,3,True,0.0333422461331325,0.0768719604183182,0.2705280332344854,True,0.4070810109496036,-0.8210623660504947,"['Fe', 'Li', 'O']"
mp-757460,Li2Fe(Si2O5)3,4,True,-0.9550238636711652,-0.1524764563625224,0.2897575738564448,True,-0.9657654007280077,0.7499973167831628,"['Fe', 'Li', 'O', 'Si']"
mp-755734,Li3Ti(FeO2)4,4,True,-0.1555141315905471,-0.0814966278173732,-0.2880765799034219,False,0.4797012396754214,-0.7872681479269306,"['Fe', 'Li', 'O', 'Ti']"
mp-1984516,LiCo(CO3)2,4,True,0.2938561833302076,-0.0430269154407905,-0.6037389685638976,False,-0.896969201638334,0.2415086431392049,"['C', 'Co', 'Li', 'O']"
mp-756323,Li2CuAsO4,4,False,0.2085708694921991,0.4194238306058304,0.1164885793085775,True,-0.0536396475202992,-0.6728344672474033,"['As', 'Cu', 'Li', 'O']"
mp-1105323,LiNdTi2O6,4,False,-1.6126622229149037,-0.399838909849424,0.9306294118382984,True,0.7761569082164528,-0.5684379431825668,"['Li', 'Nd', 'O', 'Ti']"
mp-752565,LiAg2F4,3,False,0.2542792841317702,-0.7817915887594055,-0.8682128617659177,False,0.7158292638266187,-0.0497144513773522,"['Ag', 'F', 'Li']"
mp-760364,Li2NbFe3O8,4,True,-0.2041136041332243,-0.1505323393903517,0.2783146429933767,True,0.2934542240154603,0.6039723985722812,"['Fe', 'Li', 'Nb', 'O']"
mp-766823,Li7Ti11O24,3,False,-1.3792972476211172,-0.337668666239557,-0.8682128617659177,False,-0.0872268093681085,0.0323043341664814,"['Li', 'O', 'Ti']"
mp-769122,Li4Sb2H6O3F10,5,False,-0.3118342460669649,0.6412339323172536,2.2789316738280148,True,-0.3830327337915136,0.3169800387544917,"['F', 'H', 'Li', 'O', 'Sb']"
mp-773097,LiVPO4,4,False,-0.6572714554491406,-0.1350702410703289,0.50378777775086,True,-0.0155121118797797,-0.4515495929014141,"['Li', 'O', 'P', 'V']"
mp-26467,LiCuPO4,4,False,-0.2363824509912373,0.1825442376886116,-0.8682128617659177,False,-0.3271719229720412,-0.2650659595875151,"['Cu', 'Li', 'O', 'P']"
mp-1190132,Li2Ti3O7,3,False,-1.3814257368606446,-0.3280488304246756,1.151092032490059,True,-0.2173779936027778,-0.4836922176472963,"['Li', 'O', 'Ti']"
mp-1174684,Li4MnCo2O7,4,True,0.1788676384226597,0.2243003017390412,-0.691761513664417,False,0.2375931924913544,-0.5080173219735684,"['Co', 'Li', 'Mn', 'O']"
mp-1200459,Ba2LiB10O19,4,False,-0.8578830913088029,-0.1976397452785888,-0.8436342587878498,False,-0.4835862835147751,0.9592250893548232,"['B', 'Ba', 'Li', 'O']"
mp-1647042,Li4CrTe(WO6)2,5,False,-0.1920247034574173,-0.0456636626078128,-0.5740821418300313,False,1.456085930096575,0.0029977241758767,"['Cr', 'Li', 'O', 'Te', 'W']"
mp-758986,LiMn(PO3)4,4,True,-0.6298731780601542,-0.1120842565578504,-0.1391153497333133,False,-0.5607209109437774,0.0058550588296481,"['Li', 'Mn', 'O', 'P']"
mp-540945,Na2Li3GaO4,4,False,-0.1101648223110212,0.6035656754190708,1.516047046406826,True,-0.4950278414821976,0.0394392632772358,"['Ga', 'Li', 'Na', 'O']"
mp-1176114,Li9Mn2Co5O16,4,True,0.2157610794688653,0.2325181499895857,-0.7397676555692384,False,0.2558304499525239,-0.3992743673807118,"['Co', 'Li', 'Mn', 'O']"
mp-775737,LiNi9O10,3,True,0.7962188179676063,0.2485354166032088,-0.8682128617659177,False,1.680294266439598,-0.7058128823261174,"['Li', 'Ni', 'O']"
mp-1026803,LiMg14Cd,3,False,2.1759103259768877,1.6466357986401907,-0.8682128617659177,False,-1.100237280514833,-0.1915688751180294,"['Cd', 'Li', 'Mg']"
mp-1040127,NaLiMg30O31,4,False,-1.051455429881231,0.3147846987952957,0.7407715530214869,True,-0.2785035400048066,0.5668873604591335,"['Li', 'Mg', 'Na', 'O']"
mp-1273431,Li4Fe(PO4)2,4,True,-0.6599974502652115,0.0779798757583823,2.190841419077418,True,-0.5972355027524466,0.5978975354526775,"['Fe', 'Li', 'O', 'P']"
mp-775982,Li3V2P4(HO8)2,5,False,-0.6863285115979323,-0.0555284507520091,-0.3713594494985281,False,-0.558974045523601,0.422058141810393,"['H', 'Li', 'O', 'P', 'V']"
mp-1174593,Li4MnCo2O7,4,True,0.2082145217168496,0.2320399095536316,-0.8682128617659177,False,0.1824617554153404,-0.4930620465547666,"['Co', 'Li', 'Mn', 'O']"
mp-1174250,Li4Co3O7,3,True,0.3078527682970445,0.3003597059776334,-0.6495784016662447,False,0.2818278863852158,-0.5104049434084325,"['Co', 'Li', 'O']"
mp-697754,Li2V(PO3)4,4,False,-0.7353030766789097,-0.0897040048621098,1.1765508609191324,True,-0.6356621658518876,1.3695522505439353,"['Li', 'O', 'P', 'V']"
mp-762116,LiCu4(PO4)3,4,False,0.0513305702781986,0.1896470568778064,-0.8682128617659177,False,0.3354665627808338,1.2251087264737244,"['Cu', 'Li', 'O', 'P']"
mp-757890,LiSiBiO4,4,False,-0.5773387931165852,0.1008864238328038,1.4940414101316957,True,1.4187486982233843,1.7805950374320536,"['Bi', 'Li', 'O', 'Si']"
mp-686110,Li(ReO3)5,3,False,-0.164083275571976,-0.4163001016887364,-0.8682128617659177,False,2.4741030975992024,1.7952359989198268,"['Li', 'O', 'Re']"
mp-11175,LiZnPS4,4,False,1.1308415327005377,0.79504566272661,0.9810731011459028,True,-0.8400529528496717,-0.7930257279014953,"['Li', 'P', 'S', 'Zn']"
mp-1374313,Li7Ni(O2F)2,4,True,0.3146268122714327,0.7354924887294985,-0.4968931407418833,False,-0.7400300181310498,-0.4791468980367191,"['F', 'Li', 'Ni', 'O']"
mp-1095990,Ba2NaLi,3,False,3.4139300190684936,1.9249204239859652,-0.7935968273807088,False,-2.372926994858833,5.936883750071581,"['Ba', 'Li', 'Na']"
mp-754295,Li3FeOF4,4,True,-0.866775415460807,0.4461610104769525,0.7511988391333951,True,-0.5173645265843485,-0.6948306747191555,"['F', 'Fe', 'Li', 'O']"
mp-1185243,LiYb2Al,3,False,1.8999156811191835,-3.9210891383171194,-0.8682128617659177,False,2.143360924513238,-0.9761218327410968,"['Al', 'Li', 'Yb']"
mp-510073,RbLi(H2N)2,4,False,1.604581220999261,0.7597496560776635,0.9488433077090984,True,-0.9678047345292148,-0.2019968609603308,"['H', 'Li', 'N', 'Rb']"
mp-752479,Li5Mn3Cr2O10,4,True,-0.2744817448406917,-0.0687522663292839,-0.2605187523219518,False,0.2271569969406418,-0.6947236939469749,"['Cr', 'Li', 'Mn', 'O']"
mp-1344419,Li3Mn4(BO3)4,4,True,0.7749575199085589,0.1224954922125865,-0.616942350328976,False,-0.4162876392385122,-0.5087812325658915,"['B', 'Li', 'Mn', 'O']"
mp-768229,Li2BiS3,3,False,1.092144820606016,0.853679541133001,-0.1482561524937518,False,0.2782897226772953,-0.5037311645100772,"['Bi', 'Li', 'S']"
mp-1210789,Li2SiS3,3,False,0.7347010827653729,0.685168314569946,1.283396688741146,True,-1.197919844498096,-0.5620693905819792,"['Li', 'S', 'Si']"
mp-1177383,Li4V3P8O29,4,False,-0.6598764213768991,-0.0972354638732639,-0.3260616935967996,False,-0.8253791381104402,2.1623417035192367,"['Li', 'O', 'P', 'V']"
mp-759114,LiCoSiO4,4,True,-0.3677356855987784,0.0217276384638733,0.0883890745264889,True,-0.4927447426622505,1.7776013591835669,"['Co', 'Li', 'O', 'Si']"
mp-753804,LiCo2(PO4)2,4,True,-0.2864661821383968,-0.0230287030435927,-0.516664358564462,False,-0.5762674416919561,-0.7157373060525943,"['Co', 'Li', 'O', 'P']"
mp-754476,Li2Mn2FeO6,4,True,0.0488931202521137,-0.0388784104479863,-0.8682128617659177,False,0.3222159223410113,-0.6136062537774465,"['Fe', 'Li', 'Mn', 'O']"
mp-755990,Li2MnFe(BO3)2,5,True,-0.4879335083585975,-0.1493844215706671,1.3167775462292666,True,-0.3767760402394581,-0.5091245733503935,"['B', 'Fe', 'Li', 'Mn', 'O']"
mp-760079,Li3V3P8O29,4,False,-0.6016725346697914,-0.1030038731198676,-0.0256339762037215,False,-0.8317474961860736,2.148701906706231,"['Li', 'O', 'P', 'V']"
mp-771081,Li3Ni(BO2)5,4,True,-0.6478635802480772,-0.0734285373852957,1.911945370408928,True,-0.7518971831539312,-0.1662495645275948,"['B', 'Li', 'Ni', 'O']"
mp-1223167,Li7Eu3(MoO4)8,4,False,-0.1122063918500907,-0.1697866533550832,-0.8204775584614057,False,0.4419697677529041,0.701185574967317,"['Eu', 'Li', 'Mo', 'O']"
mp-762930,Li3(NiO2)5,3,True,0.841119059360257,0.4048337129095521,-0.7786329947136214,False,0.6313554167947332,-0.753655379464523,"['Li', 'Ni', 'O']"
mp-694971,LiTi2NbCu2O9,5,False,-0.6204513078680911,-0.1826064576715452,-0.8416706789356075,False,0.7553882555049575,0.5962564451504756,"['Cu', 'Li', 'Nb', 'O', 'Ti']"
mp-774910,LiSb(TeO4)3,4,False,0.476372460502185,0.3869978355902903,0.0702428883057667,True,1.581129753235662,-0.686382670373875,"['Li', 'O', 'Sb', 'Te']"