material_id,formula_pretty,n_elements,contains_transition_metal,formation_energy_per_atom,energy_per_atom,band_gap,is_semiconductor,density,volume,elements
mp-759912,Li10CoNi9O20,4,True,0.5003645883704482,0.3853386430575443,-0.5633840171178136,False,0.7003630588212765,-0.2620043820423429,"['Co', 'Li', 'Ni', 'O']"
mp-753729,LiMnVP2(HO5)2,6,True,-0.3942517156837221,-0.0544585516869957,-0.1680273703163298,False,-0.4399762710627354,-0.715995028048922,"['H', 'Li', 'Mn', 'O', 'P', 'V']"
mp-1175289,Li7Mn4CoO12,4,True,-0.0363816897404682,0.1204995173684495,-0.8682128617659177,False,0.0856140817566728,-0.5961392493111163,"['Co', 'Li', 'Mn', 'O']"
mp-1280939,LiCr2O3,3,False,-0.2195143807257556,-0.2628715070055054,0.0471538976293998,True,0.4770739020457193,-0.896667914313393,"['Cr', 'Li', 'O']"
mp-776156,LiMnF3,3,True,-1.1290811356670558,0.2653627461412371,1.5322296527753052,True,-0.3038791083644633,-0.5464179003549571,"['F', 'Li', 'Mn']"
mp-768821,Li2Bi2B2O7,4,False,-0.3213881075618455,0.1239493256498283,1.165920445856993,True,1.20906161500621,0.2255034472826905,"['B', 'Bi', 'Li', 'O']"
mp-831237,LiMnH8(SO6)2,5,True,0.3948939880001956,0.3628102181573981,-0.0678170882018932,False,-1.1149577862834994,1.763071919422486,"['H', 'Li', 'Mn', 'O', 'S']"
mp-758877,Li7Mn7P6(O8F)3,5,True,-0.7453393237914335,-0.1053529687847001,1.2831258501408374,True,-0.3019356806163367,1.8431466528216705,"['F', 'Li', 'Mn', 'O', 'P']"
mp-776553,Li2MnVP2(HO5)2,6,True,-0.4726248004528889,-0.0231628548422866,-0.649510692016168,False,-0.4167868856253842,-0.1841302788523928,"['H', 'Li', 'Mn', 'O', 'P', 'V']"
mp-760002,Li3Cu2F7,3,False,-0.5234586968248357,0.1739618429571186,-0.4517985137903868,False,-0.1742680019492946,0.3056964407835874,"['Cu', 'F', 'Li']"
mp-20046,LiCoAsO4,4,True,0.1664125631038814,0.1939003178669586,0.0834462700708444,True,0.3471195680618282,-0.3180670463245327,"['As', 'Co', 'Li', 'O']"
mp-754923,Li2AlVO4,4,False,-0.8056474613615859,0.0046901677774511,0.7931788221813342,True,-0.5763055371595126,-0.7209468094727954,"['Al', 'Li', 'O', 'V']"
mp-1176724,LiFeF3,3,True,-0.7206746108149619,0.4132272464083058,1.1861656312301123,True,-0.4363595000951911,2.098863584733284,"['F', 'Fe', 'Li']"
mp-766017,Li4Mn2Ni3Sb3O16,5,True,0.1338865387168979,0.1766459620521546,-0.8682128617659177,False,0.8335288837432584,-0.3407996622151709,"['Li', 'Mn', 'Ni', 'O', 'Sb']"
mp-1096269,LiYZn2,3,False,3.832483888313963,-0.3898152777341083,-0.6908135785633338,False,-2.2818132073736352,1.960979212735563,"['Li', 'Y', 'Zn']"
mp-672336,Li5Ca7Sn11,3,False,1.6339757205493008,1.1157747581204092,-0.8682128617659177,False,0.3248516574308454,2.4319616276791782,"['Ca', 'Li', 'Sn']"
mp-1096167,LiScIn2,3,False,3.720866842735743,-1.7554440634279351,-0.8655044757628249,False,-2.2334019293266123,2.0376786267272924,"['In', 'Li', 'Sc']"
mp-798790,LiVP2O7,4,False,1.436888854046687,0.4284676642319983,-0.2479247574075706,False,-0.6578151335821569,-0.4346973634248438,"['Li', 'O', 'P', 'V']"
mp-779751,Li4Ti3Co3(WO8)2,5,True,-0.4899594510540686,-0.2257133546868318,-0.8365247455297317,False,1.0325010185199466,-0.3578394766975991,"['Co', 'Li', 'O', 'Ti', 'W']"
mp-1176324,Li9Mn2Co5O16,4,True,0.2149421029145793,0.2323021625787256,-0.8682128617659177,False,0.2845820670687678,-0.4079077436145939,"['Co', 'Li', 'Mn', 'O']"
mp-26080,LiCr2(PO4)3,4,False,-0.5215561191545237,-0.1597398391529818,-0.8682128617659177,False,-0.5334934009552045,1.3330082756558277,"['Cr', 'Li', 'O', 'P']"
mp-849421,LiV2(PO4)3,4,False,-0.7352233650205183,-0.197741634807543,-0.0149358514915052,False,-0.5396486317087038,1.3273012424060115,"['Li', 'O', 'P', 'V']"
mp-974642,LiAg2Pb,3,False,2.0366744381305737,1.2556765319527547,-0.8682128617659177,False,3.556816358399935,-1.0108011007162396,"['Ag', 'Li', 'Pb']"
mp-758450,LiCu3(CO3)3,4,False,0.5611058155190342,0.1194984821745481,-0.8682128617659177,False,-0.2695425598525659,-0.1563463903195704,"['C', 'Cu', 'Li', 'O']"
mp-1100584,Li9Mn2Co5O16,4,True,0.2152492293076553,0.2323831605439301,-0.8682128617659177,False,0.2338821028159077,-0.3925620237134356,"['Co', 'Li', 'Mn', 'O']"
mp-1640232,Li7Mn4CoO12,4,True,-0.0724959186750958,0.1109751680302801,-0.8682128617659177,False,0.1305974940661676,0.0239897029976922,"['Co', 'Li', 'Mn', 'O']"
mp-776613,Li4TiCu2Ni3(PO4)6,6,True,-0.3880187959636553,0.0414375003085772,-0.8337486498765615,False,-0.2144776092702767,0.0881090171869338,"['Cu', 'Li', 'Ni', 'O', 'P', 'Ti']"
mp-560247,Li2Ca2Si5O13,4,False,-1.390201192582402,-0.1372264987976808,2.4753573687023254,True,-0.7381456156218037,0.3648583127887601,"['Ca', 'Li', 'O', 'Si']"
mp-780703,LiCu2PO4,4,False,0.1457032319617023,0.2963729246376265,-0.8682128617659177,False,0.3780675007334951,-0.7292356307784592,"['Cu', 'Li', 'O', 'P']"
mp-1175747,Li9Mn2Co5O16,4,True,0.2048461480457678,0.2296395721286568,-0.8537907062994481,False,0.2393963625112237,-0.3942585032008899,"['Co', 'Li', 'Mn', 'O']"
mp-1176237,Li9Mn2Co5O16,4,True,0.3389510577157791,0.2650068510472472,-0.8682128617659177,False,0.2747169916150446,-0.4049656103183227,"['Co', 'Li', 'Mn', 'O']"
mp-760664,LiCu(PO3)2,4,False,-0.2991410378832437,0.1098974213787532,-0.181298461731485,False,-0.9026393607236178,-0.3258113793624336,"['Cu', 'Li', 'O', 'P']"
mp-1303223,Li3TiNi3O8,4,True,0.0946978259966692,0.1991386594935231,-0.554852601208071,False,0.3990043995018281,-0.4157212033444575,"['Li', 'Ni', 'O', 'Ti']"
mp-26399,Li3V(PO4)2,4,False,-0.8080673892309076,-0.0261391236309643,0.5350696360865828,True,-0.4386597797442397,-0.8326457337384418,"['Li', 'O', 'P', 'V']"
mp-859789,Li2Si5Ni2O13,4,True,-0.8464586280215849,-0.093387280507101,1.5756315384748694,True,-0.368679614706921,0.1997614403074931,"['Li', 'Ni', 'O', 'Si']"
mp-757658,LiTi(PO3)4,4,False,-0.7702566125613013,-0.1286918787208419,-0.7848622825207343,False,-0.7020511988287236,1.3942337780046894,"['Li', 'O', 'P', 'Ti']"
mp-1222662,Li2MgBi,3,False,1.875792500879272,1.356079450777167,-0.8682128617659177,False,0.5294153985106017,-0.9771903339292888,"['Bi', 'Li', 'Mg']"
mp-1175056,Li7Mn2(CoO4)3,4,True,0.1268851580000276,0.2126070451341151,-0.7547991978864038,False,0.2053419148162565,-0.6150134015912527,"['Co', 'Li', 'Mn', 'O']"
mp-1174056,Li3MnCoO5,4,True,0.1163440705589945,0.2126494633342504,-0.8217640418128748,False,0.0918994805430505,-0.7085514598191116,"['Co', 'Li', 'Mn', 'O']"
mp-20049,LiFeP,3,True,1.454423248580251,0.394756587450863,-0.8682128617659177,False,0.1459915968296292,-1.0115757389135809,"['Fe', 'Li', 'P']"
mp-1236275,LiPrNdO2,4,False,0.2051265841742786,0.3528506103004644,-0.8682128617659177,False,1.9910294124356624,-1.007111563881618,"['Li', 'Nd', 'O', 'Pr']"
mp-775490,NaLi7Fe8(SiO3)16,5,True,-0.854701101370708,-0.1619518191030402,0.9672603325301298,True,-0.2935611388533631,1.275073876541205,"['Fe', 'Li', 'Na', 'O', 'Si']"
mp-1233002,Sr4LiMn2(GaO5)2,5,True,-0.703960976768542,0.0926611983651459,-0.7896019580261475,False,0.6944825535089754,-0.4703405491165308,"['Ga', 'Li', 'Mn', 'O', 'Sr']"
mp-1174003,Li5Co3O8,3,True,0.2706755224643845,0.3311587854050719,-0.8682128617659177,False,0.205141632507071,-0.8368824879366823,"['Co', 'Li', 'O']"
mp-766202,Li7Ti3(SiO6)2,4,False,-0.9708591941234584,-0.0141891751933986,-0.8682128617659177,False,-0.125772162792492,-0.645417867955655,"['Li', 'O', 'Si', 'Ti']"
mp-696822,LiNO3,3,False,1.854969328678215,0.5719392276025348,-0.8682128617659177,False,-0.8506312906595593,-0.9714190693337575,"['Li', 'N', 'O']"
mp-775164,Li2NbCr3O8,4,False,-0.6440038706825806,-0.3400979620697299,0.7119949517386256,True,0.2856291746053553,0.5561125511862176,"['Cr', 'Li', 'Nb', 'O']"
mp-1222357,LiGe3SbTe5,4,False,1.6859573196238054,0.9497811046556356,-0.3083217652765412,False,1.3819211696589933,-0.4263507254547253,"['Ge', 'Li', 'Sb', 'Te']"
mp-1111349,NaLi2CrF6,4,False,-0.9770711588328908,0.5181088842450903,2.0426249950581594,True,-0.8348708351742775,-0.8494453639400142,"['Cr', 'F', 'Li', 'Na']"
mp-775286,Li2Fe3NiO8,4,True,0.5065638812846766,0.1264489985805515,-0.8682128617659177,False,0.4340249038889306,-0.8369075442276602,"['Fe', 'Li', 'Ni', 'O']"
mp-754709,LiTiV3O8,4,False,-0.6868959801492064,-0.3529271118374314,-0.7770756727618422,False,-0.0250819582400073,-0.8046932001569501,"['Li', 'O', 'Ti', 'V']"
mp-1235514,K2BaLiCo(NO2)6,6,True,0.8513382899161366,0.2162948352697775,-0.2466382740561008,False,-0.6863291086978638,-0.2570789062218497,"['Ba', 'Co', 'K', 'Li', 'N', 'O']"
mp-766695,Li3CrPCO7,5,False,-0.4464965772009283,-0.0221416812261103,-0.6420626305076627,False,-0.6836872967633517,0.3632244991973359,"['C', 'Cr', 'Li', 'O', 'P']"
mp-1175789,Li9Mn2Co5O16,4,True,0.2110864677651123,0.231285321927067,-0.8682128617659177,False,0.2148131501705097,-0.3866424541136181,"['Co', 'Li', 'Mn', 'O']"
mp-755522,Li4Cr3GaO8,4,False,-0.4500016052013542,-0.0162742585307796,1.4282276302565386,True,0.3586247277110173,-0.3846644635919704,"['Cr', 'Ga', 'Li', 'O']"
mp-558045,NaLi2PO4,4,False,-0.7810319860345443,0.2314144237340006,2.7487012260644748,True,-0.8417500356148854,-0.2234630573329449,"['Li', 'Na', 'O', 'P']"
mp-1174588,Li4MnCo2O7,4,True,0.2020981293123036,0.2304268429128991,-0.8682128617659177,False,0.1880532691494723,-0.4946066926433327,"['Co', 'Li', 'Mn', 'O']"
mp-1198038,LiPH4CO3,5,False,0.5615599473794325,0.3818393441781926,2.9299599593214665,True,-1.4358080823936623,-0.0191827039357243,"['C', 'H', 'Li', 'O', 'P']"
mp-695259,Ba3LiTi5(SbO7)3,5,False,-1.1026512997931182,-0.1890458002278486,0.7081355016842182,True,0.9890477124638074,1.2554201973097312,"['Ba', 'Li', 'O', 'Sb', 'Ti']"
mp-1177153,Li5Cr(CO3)4,4,False,-0.1536794207456536,-0.0248897739615026,0.5210537385205772,True,-0.8821688082944174,1.3389412091531605,"['C', 'Cr', 'Li', 'O']"
mp-1176708,LiNi2OF3,4,True,-0.2030456509175834,0.4838352466527154,1.0372044010600034,True,0.3354491884216686,-0.3479950813371431,"['F', 'Li', 'Ni', 'O']"
mp-770599,Li6Fe2C4SO16,5,True,-0.0891181276913073,0.0283554446669752,-0.8682128617659177,False,-0.683253514993211,0.4817433518542911,"['C', 'Fe', 'Li', 'O', 'S']"
mp-777291,LiV4O5F7,4,False,-0.898093829353478,-0.0017369018852891,-0.0592179626420739,False,-0.2469240738492087,-0.0364479179163379,"['F', 'Li', 'O', 'V']"
mp-775597,Li3Cr2(PO4)3,4,False,-0.7579209460746492,-0.1213683820797903,0.977145941441419,True,-0.5293689533973173,1.417631997396524,"['Cr', 'Li', 'O', 'P']"
mp-758240,LiTi(PO3)4,4,False,-0.8068672536341694,-0.1383471460589182,-0.7145796657404738,False,-0.8854963437167371,0.2267529439580735,"['Li', 'O', 'P', 'Ti']"
mp-1282869,Li2Fe3SnO8,4,True,0.1398929656581433,0.0664421009974885,-0.713834859589624,False,0.4733784522164418,-0.3171425519537212,"['Fe', 'Li', 'O', 'Sn']"
mp-753457,Li4Mn3OF11,4,True,-0.9371820631376468,0.3582023245930215,0.0967173614859995,True,-0.3072282556411191,-0.6297781223871306,"['F', 'Li', 'Mn', 'O']"
mp-849759,Li2Si4(NiO4)3,4,True,-0.5331206774506978,-0.0143805522291511,-0.8682128617659177,False,-0.2941502181831671,1.6255397414642945,"['Li', 'Ni', 'O', 'Si']"
mp-757664,Li2CoSiO4,4,True,-0.5431044522387253,0.0837498058748815,0.9717968790853106,True,-0.4174019744060208,-0.2265259968817599,"['Co', 'Li', 'O', 'Si']"
mp-758422,LiVP2O7,4,False,-0.7590847756328514,-0.150673040234794,-0.8232536541145766,False,-0.4995630327871899,0.2422107354593217,"['Li', 'O', 'P', 'V']"
mp-1312304,Li5Ni3(SnO5)2,4,True,0.1171323812559383,0.3454581962996077,-0.448751579536908,False,0.9425498535518172,-0.1075942427625637,"['Li', 'Ni', 'O', 'Sn']"
mp-27231,Li2TeO3,3,False,-0.0521501502189164,0.4705546985304608,1.5929652088946635,True,0.0932045746506332,-0.3038030776336159,"['Li', 'O', 'Te']"
mp-1235689,Sr4LiMn2Cu3(SO)4,6,True,0.2645415229228754,0.3891672681693013,-0.6644745246832556,False,0.5685865154419527,-0.3519417998507381,"['Cu', 'Li', 'Mn', 'O', 'S', 'Sr']"
mp-977386,LiLu2Tc,3,False,2.0812364636654195,-5.493277341941178,-0.8682128617659177,False,3.900849654873496,-1.0104923999955688,"['Li', 'Lu', 'Tc']"
mp-768966,Li5BO4,3,False,-0.3752802775341511,0.3947912572353047,2.8508750880311537,True,-1.0556133828320813,0.695543956436233,"['B', 'Li', 'O']"
mp-12029,Li2CuP,3,False,1.4607601708654043,0.1379743708650717,-0.8682128617659177,False,-0.2466990829190474,-0.9307246709642816,"['Cu', 'Li', 'P']"
mp-1290836,K2LiMn2O4,4,True,0.1893326688608287,0.225395076108021,-0.1171097134581836,False,-0.4227368665455798,-0.441622403818404,"['K', 'Li', 'Mn', 'O']"
mp-1173988,Li3Mn2CoO6,4,True,-0.0057512343133959,0.0654162094636284,-0.6061765159666812,False,0.2653080064287572,-0.9078757537591572,"['Co', 'Li', 'Mn', 'O']"
mp-768208,Li3SbS4,3,False,1.0466874486440474,0.85697479258001,0.1695052353191208,True,-0.7161867985563043,0.7003229191303552,"['Li', 'S', 'Sb']"
mp-697774,Li2Cr(PO4)2,4,False,-0.5938089413184147,-0.0437137668152878,-0.8682128617659177,False,-0.4813218851236416,0.3807395177604882,"['Cr', 'Li', 'O', 'P']"
mp-1222527,LiV3O6,3,False,-0.4601340959732535,-0.2900682569147348,-0.6227653802356258,False,-0.0053799372493196,-0.9104374234422198,"['Li', 'O', 'V']"
mp-867962,Li3Cr4(PO4)6,4,False,-0.5860135151491498,-0.149520821660505,-0.8206806874116376,False,-0.5594116580958493,0.0759401485629712,"['Cr', 'Li', 'O', 'P']"
mp-753882,Li6MnVP2(CO7)2,6,True,-0.4567600140660822,-0.0130174101522094,1.0850074140145924,True,-0.7043548496988262,-0.4249382630317241,"['C', 'Li', 'Mn', 'O', 'P', 'V']"
mp-1221192,Na4LiNb5O15,4,False,-0.9467712998502484,-0.242935518149339,1.056840199582426,True,0.3682045511771714,0.5534080690424348,"['Li', 'Na', 'Nb', 'O']"
mp-865907,LiZn3,2,False,1.9906126866943608,-0.048430964368909,-0.8682128617659177,False,1.6204188156850812,-1.080315930071464,"['Li', 'Zn']"
mp-1176842,Li8Mn7Sb(PO4)12,5,True,-0.5615270079965011,-0.0830655790025293,-0.8682128617659177,False,-0.4583523313863447,1.4235809496190834,"['Li', 'Mn', 'O', 'P', 'Sb']"
mp-1175428,Li9Co7O16,3,True,0.2883814807092758,0.2884572775417979,-0.3723073845996113,False,0.4214902063897812,-0.4379470895531829,"['Co', 'Li', 'O']"
mp-755305,Li3MnV4O8,4,True,-0.3785819211626418,-0.2078226699647712,-0.3249783391955632,False,0.3733631841193774,-0.7845943619608935,"['Li', 'Mn', 'O', 'V']"
mp-862737,LiHgPd2,3,False,1.7835073453108805,1.0967210647161745,-0.8682128617659177,False,4.811234673053669,-1.0539256848419971,"['Hg', 'Li', 'Pd']"
mp-778006,Li2CoP2O7,4,True,-0.5474290020236757,0.0302545887619764,1.2419583828938254,True,-0.5465256291978648,1.9886911974092667,"['Co', 'Li', 'O', 'P']"
mp-1177731,Li3Ti2V5O12,4,False,-0.7443262634618776,-0.3234254128117252,-0.8682128617659177,False,0.2071296278182433,0.7575899762432032,"['Li', 'O', 'Ti', 'V']"
mp-757393,Li4Mn3Cu3(TeO8)2,5,True,0.2926560368219618,0.2390476638937507,-0.8682128617659177,False,0.7498350378070535,-0.3577051977764547,"['Cu', 'Li', 'Mn', 'O', 'Te']"
mp-757213,Li6V3P8O29,4,False,-0.7498767045864021,-0.0814888169022055,-0.0311861675100619,False,-0.7720661618358241,2.1092507572199266,"['Li', 'O', 'P', 'V']"
mp-1196392,LiBH5N,4,False,1.6908573634372468,0.7550933789940917,1.932529104032434,True,-1.8812837831597824,0.2661088584155591,"['B', 'H', 'Li', 'N']"
mp-756800,Li3Cr(CuO2)4,4,False,0.4874802628316978,0.373252708065706,-0.8682128617659177,False,0.8093924380985419,-0.7982922841982154,"['Cr', 'Cu', 'Li', 'O']"
mp-772434,Li4CrO4,3,False,-0.2247407457174515,0.2840571580580465,0.3363418131096424,True,-0.6492220291016112,-0.2462947062258588,"['Cr', 'Li', 'O']"
mp-1222291,LiSiAg2,3,False,2.1395211572028985,1.158568297095014,-0.8682128617659177,False,1.8932636537924128,-1.055414862949676,"['Ag', 'Li', 'Si']"
mp-754170,LiCoP2O7,4,True,-0.4025295153452612,-0.0051911138559756,-0.0836611463199864,False,-0.3921795520161213,-0.5112938419907423,"['Co', 'Li', 'O', 'P']"
mp-973966,LiIn(IO3)4,4,False,0.9090361789216956,0.6478899755875501,1.204582656051144,True,0.6986290557376218,-0.4166948349159041,"['I', 'In', 'Li', 'O']"
mp-1103121,KLi2O3,3,False,0.7279514817260588,0.7735827600917929,-0.8676711845652999,False,-1.1199345077446274,-0.7717634387798674,"['K', 'Li', 'O']"
mp-767661,Li2VF5,3,False,-1.30907116628365,0.3785264480640926,0.7491675496310755,True,-0.80834197972079,-0.0323431409180018,"['F', 'Li', 'V']"
mp-765096,Li3Fe(CO3)3,4,True,-0.0083990565672559,-0.030519286263746,0.7516728066839362,True,-0.8575889506349096,-0.2408938430830599,"['C', 'Fe', 'Li', 'O']"
mp-1174220,Li4Mn3O7,3,True,-0.1865703871066622,0.0438391868058803,-0.8682128617659177,False,0.1037467455657576,-0.490236544747908,"['Li', 'Mn', 'O']"
mp-775484,Ba6Li2Ti16O39,4,False,-1.6410664313849963,-0.4351858200110845,0.6992655375240889,True,0.4948980023161827,1.140870205246424,"['Ba', 'Li', 'O', 'Ti']"
mp-531248,Li7Mn17O32,3,True,0.0053106521970758,-0.1564387368279151,-0.8682128617659177,False,0.4950016246029331,0.3578324336857715,"['Li', 'Mn', 'O']"
mp-1105387,Li2FeGeS4,4,True,1.074216948311189,0.6083566625724328,-0.8682128617659177,False,-0.6706844766269152,-0.2936562596282029,"['Fe', 'Ge', 'Li', 'S']"
mp-849398,Li5Mn2(PO4)3,4,True,-0.7303522952990301,-0.0187486477274884,1.914450627461789,True,-0.5580703953889107,1.586703927050639,"['Li', 'Mn', 'O', 'P']"
mp-1235671,LiCu6OF11,4,False,0.2002702901924749,0.7897792039241638,-0.8682128617659177,False,0.5718315571868401,-0.5996480989360085,"['Cu', 'F', 'Li', 'O']"
mp-1177758,Li2VO2F,4,False,-0.7179729522184963,0.1544063663263424,-0.1687044668171031,False,-0.2559344435598646,-0.413622204263525,"['F', 'Li', 'O', 'V']"
mp-775336,Li4V2Co3Sb3O16,5,True,0.162257808531234,0.1436773285706128,-0.2695918454323129,False,0.7455526035730115,-0.3237131345657291,"['Co', 'Li', 'O', 'Sb', 'V']"
mp-26546,LiFeP2O7,4,True,-0.5658527066012992,-0.0835197735483014,0.66080645628017,True,-0.606405600039744,0.3584076503094349,"['Fe', 'Li', 'O', 'P']"
mp-776365,Li9Mn21O40,3,True,-0.0959418133713858,-0.1756259371235046,-0.6205986714331515,False,0.2176643889716115,0.9456174458903096,"['Li', 'Mn', 'O']"
mp-758237,Li2Cr2Si5O13,4,False,-1.0298751399677053,-0.243915408747159,1.1339614910204967,True,-0.5265739565142061,0.2709309746211996,"['Cr', 'Li', 'O', 'Si']"
mp-1174985,Li7Mn2(CoO4)3,4,True,0.1016100393664375,0.2059412774704684,-0.2989101239157934,False,0.2156924383780585,-0.6173804642987831,"['Co', 'Li', 'Mn', 'O']"
mp-861486,Li6V(OF)3,4,False,-0.6897779834825243,0.4390169795632132,0.558835723263723,True,-0.8342031077150567,-0.481267683497163,"['F', 'Li', 'O', 'V']"
mp-850798,Li2MnSiO4,4,True,-0.755702109746894,-0.0458923676773699,1.1103985327935888,True,-0.5530878455942035,-0.1825612611019839,"['Li', 'Mn', 'O', 'Si']"
mp-1222512,Li4Zr3O8,3,False,-1.269290194020736,-0.2053849382245371,1.2634223419683368,True,0.2510495890659294,-0.7390312903169147,"['Li', 'O', 'Zr']"
mp-850768,Li9V6(P8O29)2,4,False,-0.6775692010843434,-0.0916982668838381,-0.4762416974683,False,-0.8021915126259548,2.129193062173389,"['Li', 'O', 'P', 'V']"
mp-2209216,Li8Zn2Ge3,3,False,1.7324624223230964,0.2429219067284437,-0.8682128617659177,False,-0.209275083692174,-0.1103175647781263,"['Ge', 'Li', 'Zn']"
mp-770623,Li4Ti2Mn3V3O16,5,True,-0.6431893333057522,-0.2612101765921357,-0.5467274431987923,False,0.0952389662865647,-0.3794194621014067,"['Li', 'Mn', 'O', 'Ti', 'V']"
mp-1285272,LiV2OF7,4,False,-1.0853694077301608,0.2390615129775766,0.3936918867251344,True,-0.4613221350055089,-0.8342600497987471,"['F', 'Li', 'O', 'V']"
mp-771823,LiVNiO4,4,True,-0.126219020103899,-0.0101317720238448,1.1016639879336143,True,0.0831976239883401,-0.3442856584705773,"['Li', 'Ni', 'O', 'V']"
mp-758702,Li6Co(SiO4)2,4,True,-0.6094408413115819,0.2000066379173859,0.9601508192720104,True,-0.6740748960142162,-0.2425467270225941,"['Co', 'Li', 'O', 'Si']"
mp-25465,LiCoPO4F,5,True,-0.4108456298260346,0.1188084783715442,-0.3211188891411551,False,-0.2543052327905043,-0.7263959588170663,"['Co', 'F', 'Li', 'O', 'P']"
mp-761138,Li2Mn4OF8,4,True,-0.9255758954009689,0.1200457566816015,0.6526135886208142,True,-0.1252134222927885,-0.1572068773410221,"['F', 'Li', 'Mn', 'O']"
mp-1304290,Li2Mn3NbO8,4,True,-0.4020245876747241,-0.2457514701493063,0.0185127156466918,True,0.2402206416175659,-0.3056042159799026,"['Li', 'Mn', 'Nb', 'O']"