material_id,formula_pretty,n_elements,contains_transition_metal,formation_energy_per_atom,energy_per_atom,band_gap,is_semiconductor,density,volume,elements
mp-1235957,SrLiAl2B2O7,5,False,-0.9285440265779846,-0.0248946513755398,-0.7183036964947266,False,-0.732365002507271,-0.7287173953488529,"['Al', 'B', 'Li', 'O', 'Sr']"
mp-849784,LiFe2C2O7,4,True,0.2506217752222593,-0.1346330925111353,0.2291574370372416,True,-0.7750105194544411,0.175141426350942,"['C', 'Fe', 'Li', 'O']"
mp-757536,Li6V3P8O29,4,False,-0.7521264272233834,-0.0820821327486379,-0.160917857058211,False,-0.7799360301911723,2.1244855293730365,"['Li', 'O', 'P', 'V']"
mp-1202232,LiMn(P2O7)2,4,True,-0.2239328845923013,-0.0001178184343806,-0.8682128617659177,False,-0.8928493369046112,0.3885145165119434,"['Li', 'Mn', 'O', 'P']"
mp-753024,LiVF3,3,False,-1.0994392493091578,0.2777127952347868,0.469729823761967,True,-1.0527269246673936,-0.732052327386554,"['F', 'Li', 'V']"
mp-1222845,Li2Ti4Ni(PO5)4,5,True,-1.0816395812508224,-0.260897770341485,1.1210289478557285,True,-0.2892529547656,-0.2150756917554587,"['Li', 'Ni', 'O', 'P', 'Ti']"
mp-558059,LiMnF4,3,True,-1.0562449751357,0.354625271659657,0.3878011471684073,True,-0.1314360199203407,-0.8661007213304981,"['F', 'Li', 'Mn']"
mp-757153,LiFe5O8,3,True,0.380323935575899,-0.0985690962707329,-0.1557719236523353,False,0.7882933599286736,-0.8352085152822132,"['Fe', 'Li', 'O']"
mp-755959,NaLiO,3,False,0.3678983244061642,0.8428446808847195,0.2892836063059036,True,-1.4193593580577932,-0.6973024193887759,"['Li', 'Na', 'O']"
mp-850927,Li2Co(SO4)2,4,True,-0.0712384691729451,0.2073466133898555,1.1259040426612956,True,-0.5146735342868278,2.1711227556240376,"['Co', 'Li', 'O', 'S']"
mp-697181,CsLi2(HO)3,4,False,0.3070977296553798,0.660478158419131,1.9359822961863773,True,-0.4725135999676114,-0.6149659482210719,"['Cs', 'H', 'Li', 'O']"
mp-761992,Li2Fe2(CO3)3,4,True,0.1401687922439436,-0.1103181503435445,1.3128503865247814,True,-0.5702784835089917,-0.2268373695519834,"['C', 'Fe', 'Li', 'O']"
mp-1210949,LiHo(SO4)2,4,False,-0.4655548747558726,0.1014364202386217,3.040123559997269,True,-0.0969365459097012,-0.2699551090813447,"['Ho', 'Li', 'O', 'S']"
mp-1102495,Li4Pr3Ge4,3,False,1.446211280855966,0.851515917817412,-0.8682128617659177,False,1.0806162365448666,-0.5758896653375497,"['Ge', 'Li', 'Pr']"
mp-1235400,LiAg4(RuO3)4,4,False,0.9965170993233324,0.2851451536926529,-0.8682128617659177,False,1.721482079026448,-0.4535433649570902,"['Ag', 'Li', 'O', 'Ru']"
mp-556066,Sr2LiSiO4F,5,False,-1.5289369665931984,0.0901997559849061,2.37562105413843,True,0.2614589261420899,-0.5590060283097781,"['F', 'Li', 'O', 'Si', 'Sr']"
mp-10251,LiDyO2,3,False,-1.4301587410654788,-0.0297084426065658,1.8160007962493616,True,1.8227144141052776,-0.6414186330405602,"['Dy', 'Li', 'O']"
mp-962066,NaLiTe,3,False,1.2922521962937592,1.2611618674945766,0.5907269684501417,True,-0.4089367911522271,-0.9975169108567548,"['Li', 'Na', 'Te']"
mp-754230,Li3SiNiO5,4,True,-0.314906625869162,0.2466008560651995,-0.3862555725155396,False,0.0280058628362309,-0.2893075783770078,"['Li', 'Ni', 'O', 'Si']"
mp-753028,Li3Mn4O8,3,True,-0.1330637386202582,-0.081675910862366,-0.0003105670748029,False,0.2060217284175444,-0.8026641331187132,"['Li', 'Mn', 'O']"
mp-1661840,Li4V3Sn3(SbO8)2,5,False,-0.2345007887118882,0.0848077483166763,-0.2308619255880847,False,0.8091817167813519,0.7654689739515775,"['Li', 'O', 'Sb', 'Sn', 'V']"
mp-757839,LiCoPO4,4,True,-0.3896110570211717,0.016366532170759,0.898331908751416,True,-0.4201960614604182,-0.2500689928337817,"['Co', 'Li', 'O', 'P']"
mp-1198472,Li2V18O39,3,False,-0.4754637295908324,-0.3584994531812495,-0.8424831947365353,False,-0.058462974727747,0.7972007167566492,"['Li', 'O', 'V']"
mp-768195,Li2ErPCO7,5,False,-0.8975341566006675,-0.0922412149281135,2.5624996883518394,True,-0.0229208306949387,-0.3707169756437896,"['C', 'Er', 'Li', 'O', 'P']"
mp-1204254,LiSi3H27C9N2,5,False,1.9157401097154456,0.5960916337083804,1.0866324456164482,True,-1.9057528297663968,4.175036887276717,"['C', 'H', 'Li', 'N', 'Si']"
mp-850994,LiMn2(BO3)2,4,True,-0.4992619067978401,-0.2620418684691275,-0.8682128617659177,False,-0.435696816727284,0.2127631759161195,"['B', 'Li', 'Mn', 'O']"
mp-1027971,LiMg14Zn,3,False,2.1896012500172763,1.6448110515317211,-0.8682128617659177,False,-1.2096039240508931,-0.2195216144226351,"['Li', 'Mg', 'Zn']"
mp-1176803,Li8Zr7Fe(PO4)12,5,True,-1.1371474439299238,-0.2350288894974018,-0.8682128617659177,False,-0.4509297081972692,1.707150890298555,"['Fe', 'Li', 'O', 'P', 'Zr']"
mp-705448,LiNiPO4,4,True,-0.3534495641175095,0.0819963390021619,1.4834787047196334,True,-0.464051935445967,2.792909825429644,"['Li', 'Ni', 'O', 'P']"
mp-850210,Li3VO3F2,4,False,-0.7770833816286469,0.2543935889187879,1.3918675481650165,True,-0.830838206252172,-0.6350249010673956,"['F', 'Li', 'O', 'V']"
mp-758539,Li2(CoO2)3,3,True,0.595085472390856,0.2474406450063315,-0.8682128617659177,False,0.7132400507903546,-0.9527416973994592,"['Co', 'Li', 'O']"
mp-1097580,Li2TlSb,3,False,3.0317284521115493,-3.730059218342065,-0.8682128617659177,False,-2.1690087481590465,1.9691899396740689,"['Li', 'Sb', 'Tl']"
mp-759187,Li3Ti2(PO4)3,4,False,-0.9538585636471238,-0.1220476560071339,-0.8306340059730046,False,-0.609715429411854,0.1180164309746832,"['Li', 'O', 'P', 'Ti']"
mp-759511,Li2VF6,3,False,-1.2660941966637074,0.4187150481885623,0.544548987097408,True,-0.4600238083399441,-0.1183380962366327,"['F', 'Li', 'V']"
mp-1175418,Li9Co7O16,3,True,0.2759975838359235,0.2851912917110283,-0.4392722285260821,False,0.4666336015051238,-0.4500865163354013,"['Co', 'Li', 'O']"
mp-766051,LiVSiO4,4,False,-0.8552200983485394,-0.1876829796323643,0.5870706473459655,True,-0.6103097657260362,-0.2246672544162235,"['Li', 'O', 'Si', 'V']"
mp-753143,Li4NiOF4,4,True,-0.8376023288692537,0.5629142207635578,0.6564730386752216,True,-0.261389848584901,-0.2193724574642357,"['F', 'Li', 'Ni', 'O']"
mp-1174956,Li7Mn2(CoO4)3,4,True,0.0914533255816145,0.2032626631661297,-0.1139273599045501,False,0.2149955865062514,-0.6172216658949605,"['Co', 'Li', 'Mn', 'O']"
mp-2272,Sr6Li23,2,False,2.178061602553293,0.6547473396473452,-0.8682128617659177,False,-1.579217490467817,1.1263064046146636,"['Li', 'Sr']"
mp-684497,LiBi(PO3)4,4,False,-0.6145526088913822,-0.0230630866650092,2.3458965177544857,True,-0.0096910247854975,1.4922149504879914,"['Bi', 'Li', 'O', 'P']"
mp-772575,Li9V12Cr7O48,4,False,-0.3263207901801854,-0.1937428356936946,-0.8575147370537008,False,-0.2538312777641164,1.33042267945713,"['Cr', 'Li', 'O', 'V']"
mp-1177008,Li6MnV3(PO4)6,5,True,-0.7363528124691475,-0.099733331053342,-0.6829592591543644,False,-0.5788488682172525,1.4849722445638842,"['Li', 'Mn', 'O', 'P', 'V']"
mp-1175255,Li7Mn4CoO12,4,True,-0.0472371997631074,0.1176366106208967,-0.8682128617659177,False,0.1017300807304139,-0.6001021981795543,"['Co', 'Li', 'Mn', 'O']"
mp-770805,Li6Hf2O7,3,False,-1.0924392284564348,-0.026072597416058,2.123944284801024,True,1.2338235816610768,-0.3628408566356164,"['Hf', 'Li', 'O']"
mp-796795,Li2Mn5(Si2O7)2,4,True,1.3742298805745066,0.2693804767531647,-0.8682128617659177,False,-0.2138101416296202,-0.3647377936782835,"['Li', 'Mn', 'O', 'Si']"
mp-721239,Li10Ge(PSe6)2,4,False,1.0168708441778267,0.919148687976454,0.1519007262990164,True,-0.3138032971173556,2.1273466801482277,"['Ge', 'Li', 'P', 'Se']"
mp-1223041,Li11(MoO2)12,3,False,0.0332898376888364,-0.1186355348323976,-0.5876240718454957,False,0.8686895220565855,0.2924859839723181,"['Li', 'Mo', 'O']"
mp-1177636,Li3MnV(PO4)3,5,True,-0.7029582417871518,-0.0914928130220204,-0.474955214116831,False,-0.3950776001784806,1.2603831124785665,"['Li', 'Mn', 'O', 'P', 'V']"
mp-26525,Li3Ni3(PO4)4,4,True,-0.2382184804316877,0.0933043254829859,-0.850608352745814,False,-0.4589288805746678,0.5669378914093336,"['Li', 'Ni', 'O', 'P']"
mp-758165,Li3V3P8O29,4,False,-0.598324720432354,-0.1021209592862545,-0.6335989242479967,False,-0.8265522024549047,2.138244216160164,"['Li', 'O', 'P', 'V']"
mp-758064,LiCoPO4,4,True,-0.3832008990702547,0.018057073141408,1.154951482544467,True,-0.3970905573053644,4.6254747182733,"['Co', 'Li', 'O', 'P']"
mp-1100675,Li9Mn2Co5O16,4,True,0.1820408774285062,0.2236251736348255,-0.8301600384224628,False,0.2830398720575096,-0.4074491745602184,"['Co', 'Li', 'Mn', 'O']"
mp-26416,LiV(PO4)2,4,False,-0.5560014142906196,-0.0926478167658141,-0.0704577645549087,False,-0.6086197990531071,-0.401480510734393,"['Li', 'O', 'P', 'V']"
mp-758244,Li3TiNi3O8,4,True,0.096866297022954,0.1997105469792401,-0.8682128617659177,False,0.3862124069991133,-0.4120875882492963,"['Li', 'Ni', 'O', 'Ti']"
mp-767516,Li9Sb3S,3,False,1.3356065618454604,1.1387136362971586,-0.8401810666339071,False,-0.5110074223033705,1.7148823486458924,"['Li', 'S', 'Sb']"
mp-758444,Li7V4O11F,4,False,-0.5922686920289563,0.0448561159824038,0.2078288972628851,True,-0.2342937745844979,-0.6072793342261964,"['F', 'Li', 'O', 'V']"
mp-720509,Li10Si(PS6)2,4,False,0.8040110355415034,0.7642259110426178,0.95283817706366,True,-1.278233960715617,1.5986986497399585,"['Li', 'P', 'S', 'Si']"
mp-1176287,Li9Mn2Co5O16,4,True,0.1342220403698991,0.2110139862295628,-0.1134533923540082,False,0.3227940668138552,-0.4191105133263715,"['Co', 'Li', 'Mn', 'O']"
mp-1176688,LiFeSiO4,4,True,-0.5772542709480813,-0.0889301684850681,0.2475067522081959,True,-0.084569281531996,1.2208607576581034,"['Fe', 'Li', 'O', 'Si']"
mp-757447,LiFeSiO4,4,True,-0.5833872309492341,-0.0905476044722452,1.2832612694409913,True,-0.7243091028753076,-0.1246789456793457,"['Fe', 'Li', 'O', 'Si']"
mp-755270,LiCrP2HO7,5,False,-0.4956215052165174,-0.0529402007264818,1.2466980583992382,True,-0.634110977558662,-0.437796880384312,"['Cr', 'H', 'Li', 'O', 'P']"
mp-2412,LiP5,2,False,1.908707326085497,-0.2498901998934865,0.0575811837413073,True,-0.9476053714989164,0.0915859120208006,"['Li', 'P']"
mp-753201,LiV2H4(OF5)2,5,False,-0.4953298332094578,0.450759452027427,-0.1813661713815623,False,-0.9624048508006496,-0.5436503517906075,"['F', 'H', 'Li', 'O', 'V']"
mp-778220,Li4V3Cr2Fe3O16,5,True,-0.2428112768169973,-0.1705319425781603,-0.1619335018093709,False,0.192366946531633,-0.3972560133299767,"['Cr', 'Fe', 'Li', 'O', 'V']"
mp-757757,Li4Cu3Ni(PO4)4,5,True,-0.2764512031631574,0.1545584752702161,-0.8682128617659177,False,0.0341934580005968,-0.4094474155694848,"['Cu', 'Li', 'Ni', 'O', 'P']"
mp-758960,Li4Ti2Fe5O12,4,True,-0.3181448442919042,-0.123959830396705,0.1615154966099967,True,0.3590281832534741,0.0922537217847302,"['Fe', 'Li', 'O', 'Ti']"
mp-850197,Li2V(PO4)2,4,False,-0.6997930535489624,-0.0589620986916957,1.1443210674823263,True,-0.8172154456359673,0.6941401651998691,"['Li', 'O', 'P', 'V']"
mp-763490,Li4Ti3Nb3Cr2O16,5,False,-0.9182302718453672,-0.3624267420160696,-0.8682128617659177,False,0.4004621502735876,-0.3449764701511185,"['Cr', 'Li', 'Nb', 'O', 'Ti']"
mp-1175225,Li7Mn4CoO12,4,True,0.1621066521626266,0.1728465385733348,0.121634512714454,True,0.1132584744848133,-0.602907163586896,"['Co', 'Li', 'Mn', 'O']"
mp-1222403,LiAu,2,False,1.7034580942042492,-5.696795900744091,-0.8682128617659177,False,4.505101704498354,-1.1448885994055005,"['Au', 'Li']"
mp-29892,LiSb3O8,3,False,0.0152024470906975,0.2400105041446469,-0.2084500314124918,False,1.590226353221079,-0.4552280062063494,"['Li', 'O', 'Sb']"
mp-685320,Li20B54O,3,False,1.87981215961992,0.4723073386979012,-0.8682128617659177,False,-1.3863416745268753,0.8722782363715148,"['B', 'Li', 'O']"
mp-1111288,Li3InCl6,3,False,0.3669201193103558,1.0674941158187896,1.2528596365562743,True,-0.980542273567812,-0.5070338547146409,"['Cl', 'In', 'Li']"
mp-1638660,Li8(CoO2)5,3,True,0.291828482836079,0.3489326753229581,-0.4153707220487881,False,-0.2847151553979115,-0.5023453772696983,"['Co', 'Li', 'O']"
mp-780125,LiCr2P3O13,4,False,-0.3250938521995467,-0.1013320862318702,0.027450389456899,True,-0.683184009793589,0.2090424364543296,"['Cr', 'Li', 'O', 'P']"
mp-758274,LiFe4(BO3)4,4,True,-0.2784277097933209,-0.2186652201950939,0.1429630524888106,True,-0.4080305411997807,0.1835405157678449,"['B', 'Fe', 'Li', 'O']"
mp-1444506,Li3Mn2(CoO4)2,4,True,3.0491822865763023,0.8360519422157608,-0.8682128617659177,False,0.4108826556916709,-0.8244382948765765,"['Co', 'Li', 'Mn', 'O']"
mp-768704,Li4Cr3FeO8,4,True,-0.3297521712876872,-0.0832461566100523,0.7880328887754582,True,0.3079600556634394,-0.4009230876418648,"['Cr', 'Fe', 'Li', 'O']"
mp-1222510,Li3MnCoNiO6,5,True,0.1629008060828694,0.1916648780728582,-0.1179222292591114,False,0.4614103037694306,-0.9256234570199928,"['Co', 'Li', 'Mn', 'Ni', 'O']"
mp-684817,K2LiTa6(PO8)3,5,False,-1.2636624663040934,-0.4900246137505198,1.1922594997370712,True,0.8603824062843454,0.3306445920483156,"['K', 'Li', 'O', 'P', 'Ta']"
mp-766472,Li3SiNiO5,4,True,-0.3367921831793221,0.240829012129121,-0.1945018434965627,False,-0.5136775449697439,-0.0317336626970496,"['Li', 'Ni', 'O', 'Si']"
mp-686736,Sr5Li25La7(BiO6)8,5,False,-0.4413223078425455,0.301211105576012,0.4355364504729194,True,1.2194066552002885,2.223967868512587,"['Bi', 'La', 'Li', 'O', 'Sr']"
mp-849315,Li3P3(WO6)2,4,False,-0.561411100452436,-0.1654393279074207,1.5047395348439123,True,0.4324444851500054,1.6995750581687736,"['Li', 'O', 'P', 'W']"
mp-1175905,Li9Mn2Co5O16,4,True,0.1598104719360362,0.2177623834248314,-0.5788218173354431,False,0.2976305565770719,-0.4117675200272249,"['Co', 'Li', 'Mn', 'O']"
mp-759055,Li3Mn4P3H12O19,5,True,0.0442294790864758,0.1819521160555696,0.90632164746054,True,-0.9117476752523996,1.371024705712274,"['H', 'Li', 'Mn', 'O', 'P']"
mp-1174668,Li4MnCo2O7,4,True,0.1820576348748415,0.2251415945339976,-0.8682128617659177,False,0.2382732251793959,-0.5081980442202854,"['Co', 'Li', 'Mn', 'O']"
mp-1177068,Li6V3P8O29,4,False,-0.7489411555641109,-0.0812420860159553,-0.0925311104801157,False,-0.7833816427312109,2.131199404752197,"['Li', 'O', 'P', 'V']"
mp-677349,Li11MnAs6,3,True,1.6155453181480737,1.0269837754533877,-0.8682128617659177,False,-0.5487652549751827,0.6628492660669648,"['As', 'Li', 'Mn']"
mp-776501,Li2MnVP2(O4F)2,6,True,-0.8383766544912176,-0.0661012870963282,-0.6436199524594403,False,-0.4072624000506251,-0.1767506321207553,"['F', 'Li', 'Mn', 'O', 'P', 'V']"
mp-865936,LiSc2Tc,3,False,2.036585681006397,0.2671888363066538,-0.8682128617659177,False,0.5288872899152195,-1.032388210936745,"['Li', 'Sc', 'Tc']"
mp-752611,LiNbTe2WO12,5,False,-0.0191856262740541,-0.0131418240163114,0.4821206897261169,True,1.364636863015683,-0.6328657712598685,"['Li', 'Nb', 'O', 'Te', 'W']"
mp-780730,Li5V3F14,3,False,-1.306785739659734,0.355456061851187,-0.6611567518294668,False,-0.6142986352157851,1.833147757129188,"['F', 'Li', 'V']"
mp-1176675,LiLuO2,3,False,-1.551054604635178,-0.0545786672762395,-0.8682128617659177,False,2.612536686505476,-0.7022059009205974,"['Li', 'Lu', 'O']"
mp-755547,LiVF4,3,False,-1.2871677008118352,0.2975015814323729,0.8004237547396081,True,-0.705636333569358,-0.7618642129180256,"['F', 'Li', 'V']"
mp-1203183,LiPH3NO3,5,False,0.3353724062397676,0.3153459990232574,2.1666013643497366,True,-1.2799272746743742,-0.163452690098627,"['H', 'Li', 'N', 'O', 'P']"
mp-768947,Li10Zn3(GeO4)4,4,False,-0.2840917167500797,0.40410744474383,1.4174617958942448,True,-0.0577728537325757,-0.1752380999436729,"['Ge', 'Li', 'O', 'Zn']"
mp-779084,LiCr(PO3)3,4,False,-0.627342714338428,-0.1259284475965896,1.2722923061284652,True,-0.6122334524592552,0.7632814365817793,"['Cr', 'Li', 'O', 'P']"
mp-752725,LiAgF2,3,False,-0.0905342876375368,-0.6608400209201537,0.1207542872634488,True,0.8044891439790619,-0.6463910455280222,"['Ag', 'F', 'Li']"
mp-1174955,Li7Mn2(CoO4)3,4,True,0.0824855623893681,0.2008976089494233,-0.3834117672122914,False,0.2083028242876585,-0.6156923737588561,"['Co', 'Li', 'Mn', 'O']"
mp-982380,Li2Mg,2,False,2.141987757600202,1.2387551108542427,-0.8682128617659177,False,-1.8205322773818464,-0.8823249862608477,"['Li', 'Mg']"
mp-28545,RbLiO,3,False,0.4157023222063037,0.8903844394212476,0.6581657799271536,True,-0.1337612717644126,-0.6524987760042154,"['Li', 'O', 'Rb']"
mp-773095,Li5V3P8O29,4,False,-0.7088287571382142,-0.0899657543796998,-0.2498883372598122,False,-0.8084446403743979,2.154667564558285,"['Li', 'O', 'P', 'V']"
mp-28567,LiBiF4,3,False,-0.9259670913102992,-2.254587472553065,2.4138770064321164,True,1.7052940284109142,-0.7937286857169388,"['Bi', 'F', 'Li']"
mp-770910,Li3Mn(BO3)2,4,True,-0.614853173958976,-0.0242161720536533,0.0476955748300177,True,-0.6099136476923291,0.0684551219682292,"['B', 'Li', 'Mn', 'O']"
mp-887127,Li2V3CuO8,4,False,-0.2864695640298043,-0.0860274656633675,-0.6176871564798259,False,0.1616038720915607,0.4831636600402374,"['Cu', 'Li', 'O', 'V']"
mp-765590,LiFePO4,4,True,-0.4732033920853467,-0.0610809409584481,1.7375930214598228,True,-0.2809129688663203,-0.3296182155744777,"['Fe', 'Li', 'O', 'P']"
mp-765009,Li3V3P8O29,4,False,-0.5960973251442577,-0.1015335317967621,-0.6411146954065794,False,-0.8158900963246406,2.116983286503905,"['Li', 'O', 'P', 'V']"
mp-962069,LiAgTe,3,False,1.554855601627714,1.1852263636707518,-0.8682128617659177,False,1.6002819623104851,-1.0489081704176215,"['Ag', 'Li', 'Te']"
mp-1255402,LiAlSiH2O5,5,False,-0.6146086702697258,0.1403471969510689,2.0122910718235194,True,-1.1982300243192814,0.1716787688586741,"['Al', 'H', 'Li', 'O', 'Si']"
mp-1245516,Li7OsN4,3,False,1.6829015735933377,0.5815832267242972,-0.8423477754363815,False,0.289081928549331,1.466109763047894,"['Li', 'N', 'Os']"
mp-777359,Li5Mn8(BO3)8,4,True,-0.5191900227078345,-0.2425139795698835,-0.7067253463315052,False,-0.4143412893799858,0.2086014909784512,"['B', 'Li', 'Mn', 'O']"
mp-1174568,Li4MnCo2O7,4,True,0.2352402305819898,0.239167357651975,-0.8682128617659177,False,0.2346509647256078,-0.5072343772775855,"['Co', 'Li', 'Mn', 'O']"
mp-1177773,Li3Fe(CoO2)4,4,True,0.4383201068205088,0.1616488537750895,-0.8682128617659177,False,0.8059133937093574,-0.8119618661592153,"['Co', 'Fe', 'Li', 'O']"
mp-1347973,Li5V3(NiO5)2,4,True,1.39389160188183,0.4870162928424827,-0.8682128617659177,False,0.2349403801685104,-0.6946225518904853,"['Li', 'Ni', 'O', 'V']"
mp-705056,LiVP2O7,4,False,-0.7833212435787408,-0.1570648861705841,0.4667505991585648,True,-0.6569468892534539,0.368001249133322,"['Li', 'O', 'P', 'V']"
mp-1203079,NaLiB2(H5N)2,5,False,1.70549859659599,0.769240458702059,1.898200311443232,True,-1.8314125493872848,-0.3894263007574308,"['B', 'H', 'Li', 'N', 'Na']"
mp-1175999,Li9Mn2Co5O16,4,True,0.1886712967211364,0.2253738037860014,-0.7968468905844209,False,0.3005638473061724,-0.4126302594504504,"['Co', 'Li', 'Mn', 'O']"
mp-774569,Li4Mn2Fe3Te3O16,5,True,0.2086119928922556,0.1433746476361241,-0.2721648121352512,False,0.5744952870302332,-0.2560821565707557,"['Fe', 'Li', 'Mn', 'O', 'Te']"
mp-30764,LiPt2,2,False,1.6261045186183292,-8.222585936372361,-0.8682128617659177,False,6.272188088212922,-0.9479976390621748,"['Li', 'Pt']"
mp-782640,K8Li3Cr4O16,4,False,-0.0423491615144563,0.28690267958161,-0.8682128617659177,False,-0.8099830554973501,0.2677445422021617,"['Cr', 'K', 'Li', 'O']"
mp-1314680,Li5Mn2CoO8,4,True,-0.0499486434161186,0.1730269490835224,-0.5526181827555201,False,0.1194170867966681,-0.42894663104891,"['Co', 'Li', 'Mn', 'O']"
mp-756377,Li3Mn4FeO8,4,True,-0.0548364601550696,-0.1155588084385587,-0.8682128617659177,False,0.391025934616006,-0.7686698208358276,"['Fe', 'Li', 'Mn', 'O']"
mp-1644867,Li7Mn5O12,3,True,-0.1835922000308301,0.0571512106400513,-0.3465777175702282,False,0.0815500049757296,0.0379904856028394,"['Li', 'Mn', 'O']"
mp-775306,Li2Ti3FeO8,4,True,-1.1293281278868006,-0.3250085908730039,0.4614692464525337,True,-0.0550038811118199,0.5465959527087881,"['Fe', 'Li', 'O', 'Ti']"
mp-758543,LiCoPO4,4,True,-0.3836250684293721,0.0179452076170989,1.2122338465098812,True,-0.1026926439992688,-0.3804365017037806,"['Co', 'Li', 'O', 'P']"
mp-850289,Li4Ti2Ni3Sb3O16,5,True,-0.2315850938007652,0.1065091750197874,-0.8682128617659177,False,0.7450491387681489,0.5774637178829073,"['Li', 'Ni', 'O', 'Sb', 'Ti']"
mp-759455,LiSbP2O7,4,False,-0.5343276968874224,0.0392975865707388,1.4903850890275196,True,-0.0874457035370977,0.3655478481679826,"['Li', 'O', 'P', 'Sb']"