material_id,formula_pretty,n_elements,contains_transition_metal,formation_energy_per_atom,energy_per_atom,band_gap,is_semiconductor,density,volume,elements
mp-1211564,Li(ErGe)4,3,False,1.2656302409669522,0.6258082015008776,-0.8682128617659177,False,3.0048851806112697,1.0111954911652317,"['Er', 'Ge', 'Li']"
mp-1097607,LiBeCu2,3,False,3.9925361964462143,1.587299685794335,-0.6555368508730497,False,-2.2567912413235294,0.5805665005681732,"['Be', 'Cu', 'Li']"
mp-554804,Li2MnP2O7,4,True,-0.5285967894821929,-0.013828237509511,1.9227112047712225,True,-0.5517468657433539,1.9449151360943144,"['Li', 'Mn', 'O', 'P']"
mp-1096079,Li2TlRh,3,False,3.8556822224463168,-3.3988699251865824,-0.6988033172724579,False,-2.200581188708488,2.101354949841618,"['Li', 'Rh', 'Tl']"
mp-760680,Li2Fe12P7,3,True,1.603780500903886,-0.0191124433777435,-0.8682128617659177,False,1.5116112331879508,-0.5193844921562563,"['Fe', 'Li', 'P']"
mp-752436,Li2MnNb3O8,4,True,-0.7238694271746432,-0.3695643455910978,-0.7647525164477695,False,0.6471258622696305,-0.2714613114882589,"['Li', 'Mn', 'Nb', 'O']"
mp-2927,LiAg2Sn,3,False,1.918145831317984,1.2028791640826937,-0.8682128617659177,False,2.7114105719790613,-1.0283627196091667,"['Ag', 'Li', 'Sn']"
mp-697764,LiFeP2O7,4,True,-0.5835894146706019,-0.0881974479371679,0.825950292818758,True,-0.3778761967195164,0.1872110863870993,"['Fe', 'Li', 'O', 'P']"
mp-1101898,Li4Ce3Ge4,3,False,1.50844458593424,0.7776020971058779,-0.8682128617659177,False,1.1798443579605633,-0.595768943637508,"['Ce', 'Ge', 'Li']"
mp-772658,Li9Mn7V12O48,4,True,-0.256168467788435,-0.1621192698712213,-0.784659153570503,False,-0.2052606675241591,1.304947372169763,"['Li', 'Mn', 'O', 'V']"
mp-1235275,LiTi4O6,3,False,-1.17050215844583,-0.4364069924244729,-0.8682128617659177,False,0.3405860470707572,-0.906719845484988,"['Li', 'O', 'Ti']"
mp-1174822,Li6Mn3CoO10,4,True,-0.0558765218288837,0.1378003449801675,-0.4885648537823727,False,0.1338181975720744,-0.7218006903018077,"['Co', 'Li', 'Mn', 'O']"
mp-14871,Li16Ta2N8O,4,False,1.0088436151286149,0.4515368106271973,1.4350663049143484,True,0.0014215145260872,-0.4701584755322849,"['Li', 'N', 'O', 'Ta']"
mp-774806,Li4Mn3Cr3(SbO8)2,5,True,-0.2641010349316804,-0.1008669725803102,-0.5098256839066525,False,0.6115453515379798,-0.3663164184821182,"['Cr', 'Li', 'Mn', 'O', 'Sb']"
mp-1175599,Li9Mn2Co5O16,4,True,0.1472888812114269,0.2144600838091691,-0.4649341859053873,False,0.3165046501444847,-0.4172874505917469,"['Co', 'Li', 'Mn', 'O']"
mp-2912355,LiSn(PO3)4,4,False,-0.3024969123408874,-0.7134129605929181,1.1760091837185138,True,-0.4216738143001603,0.1190056435586169,"['Li', 'O', 'P', 'Sn']"
mp-977374,LiLuPd2,3,False,1.3360797597791956,-4.375164082332551,-0.8682128617659177,False,3.943880045465584,-1.0419023097776503,"['Li', 'Lu', 'Pd']"
mp-759479,LiCoSiO4,4,True,-0.3049416158277224,0.038288220663967,0.0043613987805321,True,-0.505406626004723,2.8082612110319927,"['Co', 'Li', 'O', 'Si']"
mp-766597,Li4Ti5S12,3,False,0.5011312726326345,0.3338414959803372,-0.1695169826180309,False,-0.7801512238645463,1.1809627904998108,"['Li', 'S', 'Ti']"
mp-566257,Li4Mo3O8,3,False,-0.1138906736064344,-0.0340221254333762,0.2053236402100235,True,0.361213376484604,-0.7423747884772043,"['Li', 'Mo', 'O']"
mp-1174287,Li4Mn3O7,3,True,-0.1811353790240453,0.0452725530208511,-0.2678313945303033,False,0.1137188718372392,-0.4930801443293688,"['Li', 'Mn', 'O']"
mp-13916,LiCaSi2,3,False,1.7607251367806305,0.9320890378685212,-0.8682128617659177,False,-1.0856121335410849,-0.3079321323793869,"['Ca', 'Li', 'Si']"
mp-768491,Li2FePCO7,5,True,-0.3481812877890866,-0.0417148765288184,0.6701503879908406,True,-0.6785337780056516,0.3370407335709983,"['C', 'Fe', 'Li', 'O', 'P']"
mp-570185,Ba38Na58Li26N,4,False,2.160067254050725,1.6160921555492007,-0.8475614184923346,False,-1.0380134999806854,13.47373807210598,"['Ba', 'Li', 'N', 'Na']"
mp-759122,LiBiP2O7,4,False,-0.53602714312294,0.0451526378932008,2.1275328962551217,True,0.2242904371929337,0.5921178158688941,"['Bi', 'Li', 'O', 'P']"
mp-1211153,LiDy(SO4)2,4,False,-0.4689719946221549,0.1000348191232518,3.0116177973147167,True,-0.1315220789507838,-0.2624297444312117,"['Dy', 'Li', 'O', 'S']"
mp-1034028,KLiMg14O15,4,False,-0.8320886449524894,0.3825415236728504,0.8990090052521894,True,-0.3560193147720322,-0.3049722688415801,"['K', 'Li', 'Mg', 'O']"
mp-757188,Li2MnSi4O11,4,True,-0.939479746464254,-0.1453838607327995,-0.8250818146666643,False,-0.6761495846647348,0.0120460009388741,"['Li', 'Mn', 'O', 'Si']"
mp-1176973,Li6MnV3(PO4)6,5,True,-0.7554013303438024,-0.1047569669986363,-0.4325012635183499,False,-0.6025927014430327,0.1403684080637806,"['Li', 'Mn', 'O', 'P', 'V']"
mp-21293,Li3In2,2,False,1.7440531755390332,-1.0372367550611887,-0.8682128617659177,False,0.4400049317565747,-0.9656980291847218,"['In', 'Li']"
mp-753838,Li2Si2Ni2O7,4,True,-0.4594498499172959,0.0591474132763317,1.503520761142521,True,-0.0922145204324153,-0.4432367686581187,"['Li', 'Ni', 'O', 'Si']"
mp-555899,Li2Si3O7,3,False,-1.213741607151325,-0.1046469959705944,2.7606181244780834,True,-0.9417055501012837,0.4822112194146904,"['Li', 'O', 'Si']"
mp-540477,Li2Mn(PO3)4,4,True,-0.692597370156703,-0.0796340955607442,1.85953810124908,True,-0.6782689228924772,-0.5640495892297649,"['Li', 'Mn', 'O', 'P']"
mp-1235337,K2LiS2(O2F)2,5,False,-0.1150290511329872,0.557052390894293,-0.8682128617659177,False,-1.3412524080028323,-0.5479406514028041,"['F', 'K', 'Li', 'O', 'S']"
mp-1094159,Li3Mg,2,False,2.147102569422016,1.2832053890059512,-0.8682128617659177,False,-1.8806115908270848,-1.0078010660037091,"['Li', 'Mg']"
mp-861290,Li2FeSi3O8,4,True,5.110554502107878,1.474207729053206,-0.8682128617659177,False,-0.8338725976804331,-0.1581746021057155,"['Fe', 'Li', 'O', 'Si']"
mp-861525,LiVCrP2(O4F)2,6,False,3.094436616909072,0.9062697961855612,-0.8682128617659177,False,-0.3886397387553223,-0.7270626634301178,"['Cr', 'F', 'Li', 'O', 'P', 'V']"
mp-1174332,Li6Mn3CoO10,4,True,-0.0058849121032766,0.1509845543361524,-0.8682128617659177,False,0.079441103191116,-0.7109538826844661,"['Co', 'Li', 'Mn', 'O']"
mp-1104607,LiVCuO4,4,False,0.0344824017117223,0.1019237349197031,-0.8363216165794997,False,0.1346252473816676,-0.7881345684811023,"['Cu', 'Li', 'O', 'V']"
mp-779579,LiCu5(PO4)2,4,False,0.3973083340986806,0.3230092477037406,-0.7712526428551925,False,0.6457878638701289,-0.1915753872164217,"['Cu', 'Li', 'O', 'P']"
mp-763577,Li3Ti2V2O8,4,False,-0.9023300153120712,-0.2325343896752682,-0.8682128617659177,False,0.0145798179590492,-0.7977669979318005,"['Li', 'O', 'Ti', 'V']"
mp-849652,Li3Ti2Cu3O10,4,False,-0.0791395914391749,0.1752254920687726,-0.8068002091457867,False,0.2435799231446606,-0.6936727867069068,"['Cu', 'Li', 'O', 'Ti']"
mp-753438,Li2VO2F,4,False,-0.7478339469767691,0.1465311726962124,0.3469722281717814,True,-0.223664138450833,-0.5878414087224815,"['F', 'Li', 'O', 'V']"
mp-1175254,Li7Mn4CoO12,4,True,-0.0524256085950609,0.1162682796421511,-0.853384448398985,False,0.1463350893671737,-0.6108198274252847,"['Co', 'Li', 'Mn', 'O']"
mp-867805,LiCa2Ga,3,False,1.8411313712584625,9.352246222752308e-05,-0.8682128617659177,False,-0.8398575735213633,-0.9367632636393732,"['Ca', 'Ga', 'Li']"
mp-1176713,LiMnP2O7,4,True,-0.5936297574254453,-0.109098137201813,-0.4597882524995108,False,-0.5258829952311819,1.8135817361597213,"['Li', 'Mn', 'O', 'P']"
mp-759874,LiCu(PO3)2,4,False,-0.3251111094287457,0.1030483748662456,0.1257648013691701,True,-0.5085504778214212,1.6923195322917886,"['Cu', 'Li', 'O', 'P']"
mp-1175263,Li7Mn4CoO12,4,True,-0.0711827351088198,0.1113214918865365,-0.4271522011622422,False,0.1265435113941157,-0.6061091053666664,"['Co', 'Li', 'Mn', 'O']"
mp-25991,Li2Ni3(P2O7)2,4,True,-0.4479460722249006,0.0065702197770147,1.880595802423128,True,-0.1618911322706649,0.232064224967203,"['Li', 'Ni', 'O', 'P']"
mp-1176381,Na2LiFePCO7,6,True,-0.3483104368677512,0.0554756325157613,1.6802429478443317,True,-0.5838441505827853,-0.3591904452521581,"['C', 'Fe', 'Li', 'Na', 'O', 'P']"
mp-753845,LiCuO2,3,False,0.6170239298815047,0.5478507529648335,-0.7504657802814553,False,-0.0264782959384299,-0.708418534374628,"['Cu', 'Li', 'O']"
mp-1020030,LiAl(GeO3)2,4,False,-0.5834007209094063,0.0911758127834274,1.5599906093070075,True,0.2904504449128206,0.0232736068365664,"['Al', 'Ge', 'Li', 'O']"
mp-778996,Li4Co2Ni3O10,4,True,0.5854843574519369,0.3382880238190618,-0.8682128617659177,False,0.6218182700134499,-0.2510030245013705,"['Co', 'Li', 'Ni', 'O']"
mp-764068,Li3V3P8O29,4,False,-0.6053887117452951,-0.1039839347109282,-0.2858421614508702,False,-0.8585453746512152,2.20368935199374,"['Li', 'O', 'P', 'V']"
mp-765515,LiCo15O16,3,True,1.3069335392463586,0.1781098440481773,-0.8682128617659177,False,1.5634920294304393,-0.3346900070153613,"['Co', 'Li', 'O']"
mp-1222509,Li4WO6,3,False,-0.0167556755267713,0.208055462658301,-0.8682128617659177,False,0.4739468911139932,-0.9073464504122712,"['Li', 'O', 'W']"
mp-758175,LiV2(CO3)4,4,False,-0.0573904031769193,-0.253411679254602,-0.3005351555176498,False,-0.631098956001166,-0.0462866237244052,"['C', 'Li', 'O', 'V']"
mp-775214,LiVCuO4,4,False,0.071603407452263,0.1117135999365384,-0.8682128617659177,False,0.3326581981805511,-0.4008397693462728,"['Cu', 'Li', 'O', 'V']"
mp-754221,LiFe2F5,3,True,-0.7769590511671642,0.3031633363833231,1.2963292319059154,True,-0.3007326006833397,-0.6174968018728401,"['F', 'Fe', 'Li']"
mp-770354,Li3V3(BO5)2,4,False,-0.6608847206205688,-0.1800416057417778,-0.3381140113105629,False,-0.1936212996866233,-0.2537264502298095,"['B', 'Li', 'O', 'V']"
mp-1177893,Li2MnV3O8,4,True,-0.4156542508253563,-0.2250229807124903,-0.8682128617659177,False,0.0006346097518597,-0.7912238536554667,"['Li', 'Mn', 'O', 'V']"
mp-772416,Li2Ti3Sn(PO4)6,5,False,-1.011894105444345,-0.2010755697393257,0.828117001621233,True,-0.4722321835111083,0.0943284614386274,"['Li', 'O', 'P', 'Sn', 'Ti']"
mp-1177422,Li4Fe2P4H3O16,5,True,-0.4156979639607338,0.0725280743099565,0.204646543709251,True,-0.6225678605090231,-0.3498694397528449,"['Fe', 'H', 'Li', 'O', 'P']"
mp-766142,LiFe5O5F,4,True,0.3071323521899961,-0.0948413417693101,-0.1395216076337772,False,0.3729661913487858,-0.8094219786316655,"['F', 'Fe', 'Li', 'O']"
mp-939375,LiCuPO4F,5,False,4.991712854590714,1.6536629048145368,-0.8682128617659177,False,-0.2040480481338643,-0.7247139495071854,"['Cu', 'F', 'Li', 'O', 'P']"
mp-7611,Li2CaGeO4,4,False,-0.6934469710309058,0.2591759933934655,1.9170235941647276,True,-0.1820479033882034,-0.9753929108582852,"['Ca', 'Ge', 'Li', 'O']"
mp-757774,Li2Co(NiO3)2,4,True,0.6897272484354497,0.3437914547117869,-0.6603442360285395,False,0.6035026248992765,-0.6481982508917538,"['Co', 'Li', 'Ni', 'O']"
mp-765998,Li4Mn8O9F7,4,True,-0.5060123250150516,-0.0336245452619138,-0.5088777488055694,False,-0.0510013985119845,-0.2668286950970027,"['F', 'Li', 'Mn', 'O']"
mp-1235075,Cs2LiTm2(WO4)4,5,False,-0.6774720264352533,-0.3075638117700598,0.6478739131154015,True,2.667518897804185,-0.2453728082021801,"['Cs', 'Li', 'O', 'Tm', 'W']"
mp-1223123,Li2Ta2W2O13,4,False,-0.5195170220560801,-0.3970414331469827,-0.6256768951889506,False,1.1535482363785283,-0.4047877800849124,"['Li', 'O', 'Ta', 'W']"
mp-1275836,Li2Cr3SnO8,4,False,-0.3158248180885569,-0.1272976881362323,-0.3362181411083986,False,0.4485600646488811,-0.3344627231110621,"['Cr', 'Li', 'O', 'Sn']"
mp-768413,Li2FeNi3O8,4,True,0.7282142465486497,0.2963992935878057,-0.8682128617659177,False,0.4927266566489263,-0.8386657496965342,"['Fe', 'Li', 'Ni', 'O']"
mp-758260,LiV2(CO3)4,4,False,-0.0053588782998564,-0.2396894862535041,-0.4426577110299483,False,-0.7581003404204371,0.0401595334436526,"['C', 'Li', 'O', 'V']"
mp-23985,LiH6BrO7,4,False,0.9919595766139973,0.6677695477101934,1.2463595101488518,True,-1.0316695243428895,-0.3483725651957981,"['Br', 'H', 'Li', 'O']"
mp-752916,Li4V3(FeO5)2,4,True,-0.2684565699529663,-0.0790977172640956,0.0594093442933951,True,0.131846094479954,-0.6887566768746914,"['Fe', 'Li', 'O', 'V']"
mp-1174089,Li5Mn(CoO4)2,4,True,0.1258913105892304,0.2561880084909716,-0.8682128617659177,False,0.1404467112090263,-0.8319219655006193,"['Co', 'Li', 'Mn', 'O']"
mp-1174534,Li4MnCo2O7,4,True,0.1205371348833241,0.2089168889078938,-0.1287557732714837,False,0.2378609369874774,-0.5080884871544669,"['Co', 'Li', 'Mn', 'O']"
mp-1236178,Sr4LiMn2Ga2O11,5,True,-0.5302612465664648,0.1297107503392851,-0.8682128617659177,False,0.9397932576846704,-0.5100703974027497,"['Ga', 'Li', 'Mn', 'O', 'Sr']"
mp-1175685,Li9Mn2Co5O16,4,True,0.1816453993717999,0.2235208748230066,-0.8682128617659177,False,0.2963382715824901,-0.4113868606971453,"['Co', 'Li', 'Mn', 'O']"
mp-1199163,LiH6C3BrN2,5,False,1.7735601733492203,0.4825613319012861,2.056166925073624,True,-1.5679528849659647,0.9016332921689768,"['Br', 'C', 'H', 'Li', 'N']"
mp-5012,Li2SiO3,3,False,-0.999983599014746,0.1102306708821574,2.5691352340594165,True,-0.7896233540417197,-0.9024489061088368,"['Li', 'O', 'Si']"
mp-800259,Li5Cr3FeO8,4,True,2.0575376866489794,0.6040657446149592,-0.8682128617659177,False,0.1746037893353459,-0.7904377397888263,"['Cr', 'Fe', 'Li', 'O']"
mp-1177954,Li2FeF4,3,True,-0.9670647104933392,0.457070143247659,1.3265954454904785,True,-1.175429853872604,0.1639307772033165,"['F', 'Fe', 'Li']"
mp-1177458,Li4Mn3V3(TeO8)2,5,True,-0.1732762049971112,-0.0387924783674988,-0.5773999146838193,False,0.4174609481210453,-0.2991628712539414,"['Li', 'Mn', 'O', 'Te', 'V']"
mp-1176620,LiMnF5,3,True,-0.7811944796862711,0.4772021663262532,-0.1253025811175402,False,-0.3311173073081151,-0.3138978211526077,"['F', 'Li', 'Mn']"
mp-37680,LiGdSe2,3,False,0.066577147598615,-3.840927989240988,-0.0101961759860927,False,1.208770759342899,-0.6822655242598383,"['Gd', 'Li', 'Se']"
mp-559142,KLi(PO3)2,4,False,-0.7989072654797865,0.0642059278639779,2.851619894182004,True,-0.8625573492357881,1.9413038997520704,"['K', 'Li', 'O', 'P']"
mp-1176646,LiMnCoO4,4,True,0.3018520625624295,0.0434321547034755,-0.8682128617659177,False,0.3442849435133048,-0.8225861242204837,"['Co', 'Li', 'Mn', 'O']"
mp-774898,Li4Mn2Fe3Sb3O16,5,True,0.02257988702706,0.0636701400981296,-0.8682128617659177,False,0.6437423508576575,-0.2954784230095704,"['Fe', 'Li', 'Mn', 'O', 'Sb']"
mp-1147695,Li10Zn(PS4)4,4,False,0.9360866880824504,0.7726881229061088,0.9769428124911872,True,-1.1570977459819756,0.5930761529220748,"['Li', 'P', 'S', 'Zn']"
mp-778070,Li2MnVP2(HO5)2,6,True,-0.4695356626416312,-0.0223481613395837,-0.6489013051654714,False,-0.4335864519347941,-0.1755989147698861,"['H', 'Li', 'Mn', 'O', 'P', 'V']"
mp-1185316,LiGa2Co,3,True,1.8943290829853048,-0.7547982959806916,-0.8682128617659177,False,2.1558383634505223,-1.09695118814126,"['Co', 'Ga', 'Li']"
mp-756303,Li4Y3MnO8,4,True,-1.0388649329347552,-0.1117685250428959,-0.1209014538625137,False,0.1994278639862958,1.023705662880548,"['Li', 'Mn', 'O', 'Y']"
mp-1190625,Li2Ti6O13,3,False,-1.501024753030881,-0.4531175728224074,1.0534547170785609,True,-0.344770488862831,-0.4835764822727071,"['Li', 'O', 'Ti']"
mp-802450,Li2Mn2Si4O11,4,True,-0.0951328494639892,0.0129804416220567,-0.1315318689246532,False,-0.4384318747900226,0.0387506703687295,"['Li', 'Mn', 'O', 'Si']"
mp-779010,Li9Sn3P8O29,4,False,-0.6237550064416856,0.095094453444165,-0.8682128617659177,False,-0.5077078779708586,2.3856206014280192,"['Li', 'O', 'P', 'Sn']"
mp-761008,Li3V3P8O29,4,False,-0.6068097889827153,-0.1043587131969984,-0.4554548348945622,False,-0.843718184308698,2.1730462664374155,"['Li', 'O', 'P', 'V']"
mp-756823,LiMg2Mn3O8,4,True,-0.3692301762066524,-0.0557751630828638,-0.8682128617659177,False,0.0799904035628095,-0.8065073600034253,"['Li', 'Mg', 'Mn', 'O']"
mp-1175410,Li9Co7O16,3,True,0.297021921149644,0.2907360074390547,-0.8682128617659177,False,0.4149566470396016,-0.436159112093811,"['Co', 'Li', 'O']"
mp-1222771,Li3(WO3)8,3,False,-0.2557014800634868,-0.4199699356285613,-0.8682128617659177,False,2.536483930255783,-0.0456576951223496,"['Li', 'O', 'W']"
mp-26703,LiFe2(PO4)3,4,True,-0.2667200724173508,-0.0543931895599526,-0.693251125966118,False,-0.4449492610650502,0.0162109058073875,"['Fe', 'Li', 'O', 'P']"
mp-1275910,Li2VCrO4,4,False,-0.4833494000390465,-0.1245655024307574,-0.094494690332358,False,0.2036989327587071,-0.8104934956825199,"['Cr', 'Li', 'O', 'V']"
mp-766702,Li4Si3NiO9,4,True,-0.774023521035851,0.0678137244260646,1.874705062866401,True,-0.6255803019975342,-0.166112515902749,"['Li', 'Ni', 'O', 'Si']"
mp-7724,Li2UO4,3,False,-1.0828747368606793,-0.1934688913642064,0.325846817347657,True,0.9841769561499109,-0.9480337610783498,"['Li', 'O', 'U']"
mp-756267,Li5Nb2Fe5O12,4,True,-0.1404491192564032,-0.0877248098697406,-0.8682128617659177,False,0.8114437445643912,-0.5698462219266757,"['Fe', 'Li', 'Nb', 'O']"
mp-1211639,LiCa11Sb9,3,False,0.9751415946762892,0.9513001339842738,-0.3768439311547919,False,0.2598663973515818,5.915543372241505,"['Ca', 'Li', 'Sb']"
mp-755675,Li4AlCr3O8,4,False,-0.6547864109043101,-0.0832927763468346,1.2838029466416108,True,0.096274009590197,-0.8210643507184207,"['Al', 'Cr', 'Li', 'O']"
mp-769018,LiFe2(SO4)3,4,True,0.0585622911481421,0.093151611950705,0.0491174774816415,True,-0.5275459305898033,1.3963408845031535,"['Fe', 'Li', 'O', 'S']"
mp-1222657,Li2GePd,3,False,1.5626702085930253,0.9628677942444716,-0.8682128617659177,False,1.4284203611578112,-1.0809513503439594,"['Ge', 'Li', 'Pd']"
mp-1114240,Na2LiMnF6,4,True,-0.9888877516456858,0.5456969253144943,-0.8682128617659177,False,-0.4840577396966609,-0.8866981196004814,"['F', 'Li', 'Mn', 'Na']"
mp-1213673,CsLiH4W2SO3,6,False,1.867393631105609,0.5491637943246558,-0.8682128617659177,False,0.6716905445099574,-0.6414557903183185,"['Cs', 'H', 'Li', 'O', 'S', 'W']"
mp-26521,LiMo(PO3)4,4,False,-0.6370249114807656,-0.1411094049984019,2.062870180431279,True,-0.5953488430745847,0.1658287546395656,"['Li', 'Mo', 'O', 'P']"
mp-1196827,K4LiH3(SO4)4,5,False,-0.0443682354067619,0.3629323899833295,2.347453839706264,True,-1.1049806400332436,3.793834795297357,"['H', 'K', 'Li', 'O', 'S']"
mp-752505,Li2Fe2OF4,4,True,-0.5981235192610612,0.3054913896086192,0.8673208890160019,True,0.0231122253126517,-0.6868835038777634,"['F', 'Fe', 'Li', 'O']"
mp-1206798,LiCa2Ge,3,False,1.7377611606773578,1.232284174237729,-0.8682128617659177,False,-0.7055979690477066,-0.95401071648203,"['Ca', 'Ge', 'Li']"
mp-1180529,LiMnPO5,4,True,-0.4023856983483284,-0.0625769367104472,0.0088979453357121,True,-0.2126387088188601,-0.2722949648745557,"['Li', 'Mn', 'O', 'P']"
mp-1236371,Rb3LiErV2O8,5,False,-0.5924143359974998,0.0832420801110136,-0.3884899909680913,False,0.2031030164820861,-0.4569160014862503,"['Er', 'Li', 'O', 'Rb', 'V']"
mp-805196,Li2MgCr3(SO4)6,5,False,5.40757079502486,1.5303573657807064,-0.8460040965405567,False,-0.675642600522157,0.1101050048474821,"['Cr', 'Li', 'Mg', 'O', 'S']"
mp-1176116,Li9Mn2Co5O16,4,True,0.2035207383198345,0.2292900238863601,-0.8682128617659177,False,0.2690587377772457,-0.4032686789670699,"['Co', 'Li', 'Mn', 'O']"
mp-753977,Li4Mn3(OF3)2,4,True,-0.8288682334101851,0.2272542033973643,0.9340148943421648,True,-0.2796988846288266,-0.2637686136038623,"['F', 'Li', 'Mn', 'O']"
mp-976025,Li3Ga,2,False,1.9317972368219545,0.6988281211932885,-0.8682128617659177,False,-0.907786959130634,-1.0567506541425151,"['Ga', 'Li']"
mp-1372518,Li9Mn2Co5O16,4,True,1.6300944974210378,0.6055180990569519,-0.8682128617659177,False,0.3261693335498068,-0.4200855398453195,"['Co', 'Li', 'Mn', 'O']"
mp-861112,Li3V3P8O29,4,False,-0.6003210311295164,-0.1026474431965638,-0.366484354692961,False,-0.8254610722783429,2.136056063385784,"['Li', 'O', 'P', 'V']"
mp-28613,LiBPt3,3,False,1.549694050893486,-7.580774185817615,-0.8682128617659177,False,7.187555313893004,-0.6396508012412782,"['B', 'Li', 'Pt']"
mp-1176868,Li9Si2NiO10,4,True,-0.4336586583660035,0.3259049483034968,-0.8682128617659177,False,-0.9350697152604608,0.1368718568477724,"['Li', 'Ni', 'O', 'Si']"
mp-758401,LiV2(PO4)3,4,False,-0.6714265303298868,-0.180916594977317,-0.0299673938086701,False,-0.4506054485222189,-0.0109098384337413,"['Li', 'O', 'P', 'V']"